 argument  1 = OPT.nw



============================== echo of input deck ==============================
start
memory total 1800 mb
echo

BASIS
  * library 3-21G*
END

DFT
   xc B3LYP
   grid fine
   iterations 120
   mult 1
   direct
   print none
END

GEOMETRY UNITS ANGSTROM noautoz print
B   1.70750   -0.57500   -1.20910
C   0.77110   -0.31240   0.07560
C   1.63680   -0.15660   1.34020
C   -0.25790   -1.44790   0.25690
C   -1.54470   -0.97980   -0.42240
C   -1.53330   0.54760   -0.35980
O   -2.27610   1.00750   0.73800
C   -0.09450   0.89440   -0.16760
C   0.35610   2.15730   -0.23870
H   1.59010   -1.55350   -1.86150
H   2.51670   0.22710   -1.52260
H   2.16010   -1.11040   1.56920
H   2.40350   0.63700   1.20860
H   1.00560   0.11490   2.21410
H   -0.48200   -1.60450   1.33640
H   0.08170   -2.42440   -0.15480
H   -2.44280   -1.41350   0.06950
H   -1.53160   -1.30410   -1.48660
H   -1.91490   0.98410   -1.31230
H   -3.23140   0.95330   0.47370
H   -0.33020   2.97690   -0.42790
H   1.41050   2.38210   -0.11890


END

charge 0

DRIVER
   gmax 0.00045
   grms 0.0003
   xmax 0.0018
   xrms 0.0012
   maxiter  120
END
TASK DFT OPTIMIZE

================================================================================


                                         
                                         


              Northwest Computational Chemistry Package (NWChem) 6.8
              ------------------------------------------------------


                    Environmental Molecular Sciences Laboratory
                       Pacific Northwest National Laboratory
                                Richland, WA 99352

                              Copyright (c) 1994-2017
                       Pacific Northwest National Laboratory
                            Battelle Memorial Institute

             NWChem is an open-source computational chemistry package
                        distributed under the terms of the
                      Educational Community License (ECL) 2.0
             A copy of the license is included with this distribution
                              in the LICENSE.TXT file

                                  ACKNOWLEDGMENT
                                  --------------

            This software and its documentation were developed at the
            EMSL at Pacific Northwest National Laboratory, a multiprogram
            national laboratory, operated for the U.S. Department of Energy
            by Battelle under Contract Number DE-AC05-76RL01830. Support
            for this work was provided by the Department of Energy Office
            of Biological and Environmental Research, Office of Basic
            Energy Sciences, and the Office of Advanced Scientific Computing.


           Job information
           ---------------

    hostname        = star242
    program         = nwchem
    date            = Tue Jan 12 22:10:43 2021

    compiled        = Fri_Aug_30_22:49:19_2019
    source          = /build/nwchem-6.8.1
    nwchem branch   = 6.8.1
    nwchem revision = v6.8-173-g2272a644e
    ga revision     = 5.6.5
    use scalapack   = F
    input           = OPT.nw
    prefix          = OPT.
    data base       = ./OPT.db
    status          = startup
    nproc           =        1
    time left       =     -1s



           Memory information
           ------------------

    heap     =   58982400 doubles =    450.0 Mbytes
    stack    =   58982397 doubles =    450.0 Mbytes
    global   =  117964800 doubles =    900.0 Mbytes (distinct from heap & stack)
    total    =  235929597 doubles =   1800.0 Mbytes
    verify   = yes
    hardfail = no 


           Directory information
           ---------------------

  0 permanent = .
  0 scratch   = .




                                NWChem Input Module
                                -------------------


  library name resolved from: .nwchemrc
  library file name is: </home/benoit.damota/state/partition1/grid/star242/slots/13/shared/NWChem/data/libraries/>
  


 Summary of "ao basis" -> "" (cartesian)
 ------------------------------------------------------------------------------
       Tag                 Description            Shells   Functions and Types
 ---------------- ------------------------------  ------  ---------------------
 *                           3-21G*                   on all atoms 



 Scaling coordinates for geometry "geometry" by  1.889725989
 (inverse scale =  0.529177249)

 C1  symmetry detected


                             Geometry "geometry" -> ""
                             -------------------------

 Output coordinates in angstroms (scale by  1.889725989 to convert to a.u.)

  No.       Tag          Charge          X              Y              Z
 ---- ---------------- ---------- -------------- -------------- --------------
    1 B                    5.0000    -0.23660953    -2.04661657    -1.17277203
    2 C                    6.0000    -0.16145631    -1.03319345     0.07766125
    3 C                    6.0000     0.28989378    -1.78544334     1.34388654
    4 C                    6.0000    -1.51805205    -0.33651731     0.31295108
    5 C                    6.0000    -1.44847599     1.00572403    -0.41503771
    6 C                    6.0000     0.02778147     1.40142855    -0.44792159
    7 O                    8.0000     0.33389453     2.27452218     0.60679496
    8 C                    6.0000     0.75554946     0.11289899    -0.25452603
    9 C                    6.0000     2.08681524     0.01094785    -0.39717717
   10 H                    1.0000    -1.24595991    -2.21375376    -1.76450484
   11 H                    1.0000     0.73321961    -2.62405962    -1.52268955
   12 H                    1.0000    -0.47565252    -2.53508003     1.64053789
   13 H                    1.0000     1.25040660    -2.31831586     1.17533270
   14 H                    1.0000     0.43191634    -1.07703480     2.18876158
   15 H                    1.0000    -1.66799616    -0.12723483     1.39636339
   16 H                    1.0000    -2.39025358    -0.93578719    -0.03131250
   17 H                    1.0000    -2.07751283     1.77219836     0.08842497
   18 H                    1.0000    -1.81662477     0.87287007    -1.45651745
   19 H                    1.0000     0.29280402     1.85412607    -1.43191095
   20 H                    1.0000     0.01244597     3.17228831     0.33097434
   21 H                    1.0000     2.68203424     0.88339960    -0.64835598
   22 H                    1.0000     2.59073079    -0.94178278    -0.27462144

      Atomic Mass 
      ----------- 

      B                 11.009310
      C                 12.000000
      O                 15.994910
      H                  1.007825


 Effective nuclear repulsion energy (a.u.)     457.0981644697

            Nuclear Dipole moment (a.u.) 
            ----------------------------
        X                 Y               Z
 ---------------- ---------------- ----------------
    -0.0000000000    -0.0000000000     0.0000000000

 ==============================================================================
                                internuclear distances
 ------------------------------------------------------------------------------
       center one      |      center two      | atomic units |  angstroms
 ------------------------------------------------------------------------------
    2 C                |   1 B                |     3.04490  |     1.61129
    3 C                |   2 C                |     2.91099  |     1.54043
    4 C                |   2 C                |     2.91598  |     1.54307
    5 C                |   4 C                |     2.88851  |     1.52854
    6 C                |   5 C                |     2.88887  |     1.52872
    7 O                |   6 C                |     2.65130  |     1.40301
    8 C                |   2 C                |     2.84388  |     1.50492
    8 C                |   6 C                |     2.82029  |     1.49243
    9 C                |   8 C                |     2.53745  |     1.34276
   10 H                |   1 B                |     2.23345  |     1.18189
   11 H                |   1 B                |     2.23312  |     1.18172
   12 H                |   3 C                |     2.10093  |     1.11176
   13 H                |   3 C                |     2.10002  |     1.11128
   14 H                |   3 C                |     2.10077  |     1.11168
   15 H                |   4 C                |     2.10436  |     1.11358
   16 H                |   4 C                |     2.10293  |     1.11282
   17 H                |   5 C                |     2.10146  |     1.11205
   18 H                |   5 C                |     2.10250  |     1.11259
   19 H                |   6 C                |     2.10720  |     1.11508
   20 H                |   7 O                |     1.87587  |     0.99267
   21 H                |   9 C                |     2.05150  |     1.08561
   22 H                |   9 C                |     2.04985  |     1.08473
 ------------------------------------------------------------------------------
                         number of included internuclear distances:         22
 ==============================================================================



 ==============================================================================
                                 internuclear angles
 ------------------------------------------------------------------------------
        center 1       |       center 2       |       center 3       |  degrees
 ------------------------------------------------------------------------------
    2 C                |   1 B                |  10 H                |   121.15
    2 C                |   1 B                |  11 H                |   119.92
   10 H                |   1 B                |  11 H                |   118.92
    1 B                |   2 C                |   3 C                |   110.15
    1 B                |   2 C                |   4 C                |   111.18
    1 B                |   2 C                |   8 C                |   109.64
    3 C                |   2 C                |   4 C                |   110.65
    3 C                |   2 C                |   8 C                |   112.01
    4 C                |   2 C                |   8 C                |   103.03
    2 C                |   3 C                |  12 H                |   110.29
    2 C                |   3 C                |  13 H                |   111.27
    2 C                |   3 C                |  14 H                |   110.55
   12 H                |   3 C                |  13 H                |   108.20
   12 H                |   3 C                |  14 H                |   108.35
   13 H                |   3 C                |  14 H                |   108.08
    2 C                |   4 C                |   5 C                |   106.49
    2 C                |   4 C                |  15 H                |   110.58
    2 C                |   4 C                |  16 H                |   113.50
    5 C                |   4 C                |  15 H                |   107.73
    5 C                |   4 C                |  16 H                |   111.18
   15 H                |   4 C                |  16 H                |   107.26
    4 C                |   5 C                |   6 C                |   106.35
    4 C                |   5 C                |  17 H                |   111.34
    4 C                |   5 C                |  18 H                |   109.02
    6 C                |   5 C                |  17 H                |   112.18
    6 C                |   5 C                |  18 H                |   109.29
   17 H                |   5 C                |  18 H                |   108.60
    5 C                |   6 C                |   7 O                |   110.83
    5 C                |   6 C                |   8 C                |   104.16
    5 C                |   6 C                |  19 H                |   110.71
    7 O                |   6 C                |   8 C                |   109.48
    7 O                |   6 C                |  19 H                |   111.03
    8 C                |   6 C                |  19 H                |   110.42
    6 C                |   7 O                |  20 H                |   106.46
    2 C                |   8 C                |   6 C                |   112.89
    2 C                |   8 C                |   9 C                |   124.73
    6 C                |   8 C                |   9 C                |   122.36
    8 C                |   9 C                |  21 H                |   120.47
    8 C                |   9 C                |  22 H                |   121.01
   21 H                |   9 C                |  22 H                |   118.51
 ------------------------------------------------------------------------------
                            number of included internuclear angles:         40
 ==============================================================================





                           NWChem Geometry Optimization
                           ----------------------------


 maximum gradient threshold         (gmax) =   0.000450
 rms gradient threshold             (grms) =   0.000300
 maximum cartesian step threshold   (xmax) =   0.001800
 rms cartesian step threshold       (xrms) =   0.001200
 fixed trust radius                (trust) =   0.300000
 maximum step size to saddle      (sadstp) =   0.100000
 energy precision                  (eprec) =   5.0D-06
 maximum number of steps          (nptopt) =  120
 initial hessian option           (inhess) =    0
 line search option               (linopt) =    1
 hessian update option            (modupd) =    1
 saddle point option              (modsad) =    0
 initial eigen-mode to follow     (moddir) =    0
 initial variable to follow       (vardir) =    0
 follow first negative mode     (firstneg) =    T
 apply conjugacy                    (opcg) =    F
 source of zmatrix                         =           


          -------------------
          Energy Minimization
          -------------------


 Using diagonal initial Hessian 

          --------
          Step   0
          --------


                         Geometry "geometry" -> "geometry"
                         ---------------------------------

 Output coordinates in angstroms (scale by  1.889725989 to convert to a.u.)

  No.       Tag          Charge          X              Y              Z
 ---- ---------------- ---------- -------------- -------------- --------------
    1 B                    5.0000    -0.23660953    -2.04661657    -1.17277203
    2 C                    6.0000    -0.16145631    -1.03319345     0.07766125
    3 C                    6.0000     0.28989378    -1.78544334     1.34388654
    4 C                    6.0000    -1.51805205    -0.33651731     0.31295108
    5 C                    6.0000    -1.44847599     1.00572403    -0.41503771
    6 C                    6.0000     0.02778147     1.40142855    -0.44792159
    7 O                    8.0000     0.33389453     2.27452218     0.60679496
    8 C                    6.0000     0.75554946     0.11289899    -0.25452603
    9 C                    6.0000     2.08681524     0.01094785    -0.39717717
   10 H                    1.0000    -1.24595991    -2.21375376    -1.76450484
   11 H                    1.0000     0.73321961    -2.62405962    -1.52268955
   12 H                    1.0000    -0.47565252    -2.53508003     1.64053789
   13 H                    1.0000     1.25040660    -2.31831586     1.17533270
   14 H                    1.0000     0.43191634    -1.07703480     2.18876158
   15 H                    1.0000    -1.66799616    -0.12723483     1.39636339
   16 H                    1.0000    -2.39025358    -0.93578719    -0.03131250
   17 H                    1.0000    -2.07751283     1.77219836     0.08842497
   18 H                    1.0000    -1.81662477     0.87287007    -1.45651745
   19 H                    1.0000     0.29280402     1.85412607    -1.43191095
   20 H                    1.0000     0.01244597     3.17228831     0.33097434
   21 H                    1.0000     2.68203424     0.88339960    -0.64835598
   22 H                    1.0000     2.59073079    -0.94178278    -0.27462144

      Atomic Mass 
      ----------- 

      B                 11.009310
      C                 12.000000
      O                 15.994910
      H                  1.007825


 Effective nuclear repulsion energy (a.u.)     457.0981644697

            Nuclear Dipole moment (a.u.) 
            ----------------------------
        X                 Y               Z
 ---------------- ---------------- ----------------
    -0.0000000000    -0.0000000000     0.0000000000

                      Basis "ao basis" -> "ao basis" (cartesian)
                      -----
  B (Boron)
  ---------
            Exponent  Coefficients 
       -------------- ---------------------------------------------------------
  1 S  1.16434000E+02  0.062961
  1 S  1.74314000E+01  0.363304
  1 S  3.68016000E+00  0.697255

  2 S  2.28187000E+00 -0.368662
  2 S  4.65248000E-01  1.199440

  3 P  2.28187000E+00  0.231152
  3 P  4.65248000E-01  0.866764

  4 S  1.24328000E-01  1.000000

  5 P  1.24328000E-01  1.000000

  C (Carbon)
  ----------
            Exponent  Coefficients 
       -------------- ---------------------------------------------------------
  1 S  1.72256000E+02  0.061767
  1 S  2.59109000E+01  0.358794
  1 S  5.53335000E+00  0.700713

  2 S  3.66498000E+00 -0.395897
  2 S  7.70545000E-01  1.215840

  3 P  3.66498000E+00  0.236460
  3 P  7.70545000E-01  0.860619

  4 S  1.95857000E-01  1.000000

  5 P  1.95857000E-01  1.000000

  O (Oxygen)
  ----------
            Exponent  Coefficients 
       -------------- ---------------------------------------------------------
  1 S  3.22037000E+02  0.059239
  1 S  4.84308000E+01  0.351500
  1 S  1.04206000E+01  0.707658

  2 S  7.40294000E+00 -0.404453
  2 S  1.57620000E+00  1.221560

  3 P  7.40294000E+00  0.244586
  3 P  1.57620000E+00  0.853955

  4 S  3.73684000E-01  1.000000

  5 P  3.73684000E-01  1.000000

  H (Hydrogen)
  ------------
            Exponent  Coefficients 
       -------------- ---------------------------------------------------------
  1 S  5.44717800E+00  0.156285
  1 S  8.24547000E-01  0.904691

  2 S  1.83192000E-01  1.000000



 Summary of "ao basis" -> "ao basis" (cartesian)
 ------------------------------------------------------------------------------
       Tag                 Description            Shells   Functions and Types
 ---------------- ------------------------------  ------  ---------------------
 B                           3-21G*                  5        9   3s2p
 C                           3-21G*                  5        9   3s2p
 O                           3-21G*                  5        9   3s2p
 H                           3-21G*                  2        2   2s


  Resetting Diis

@ Step       Energy      Delta E   Gmax     Grms     Xrms     Xmax   Walltime
@ ---- ---------------- -------- -------- -------- -------- -------- --------
@    0    -372.52711540  0.0D+00  0.03869  0.01184  0.00000  0.00000     87.0
                                                                    

 Line search: 
     step= 1.00 grad=-1.4D-02 hess= 6.6D-03 energy=   -372.534186 mode=accept  
 new step= 1.00                   predicted energy=   -372.534186

          --------
          Step   1
          --------


                         Geometry "geometry" -> "geometry"
                         ---------------------------------

 Output coordinates in angstroms (scale by  1.889725989 to convert to a.u.)

  No.       Tag          Charge          X              Y              Z
 ---- ---------------- ---------- -------------- -------------- --------------
    1 B                    5.0000    -0.22042871    -2.00980686    -1.18847949
    2 C                    6.0000    -0.19045155    -1.03482566     0.08146221
    3 C                    6.0000     0.29328911    -1.79594444     1.34470523
    4 C                    6.0000    -1.54520783    -0.32238924     0.34544928
    5 C                    6.0000    -1.47910372     0.99824607    -0.44821438
    6 C                    6.0000     0.00456735     1.39964820    -0.46164628
    7 O                    8.0000     0.35625980     2.28006009     0.63402876
    8 C                    6.0000     0.76389627     0.10466350    -0.26809775
    9 C                    6.0000     2.08266318     0.01035497    -0.39770907
   10 H                    1.0000    -1.24982572    -2.21410893    -1.76042811
   11 H                    1.0000     0.74429124    -2.63127362    -1.51340114
   12 H                    1.0000    -0.46102600    -2.53865296     1.64341394
   13 H                    1.0000     1.24302662    -2.31757152     1.17644545
   14 H                    1.0000     0.42981657    -1.07440985     2.16679468
   15 H                    1.0000    -1.66150996    -0.12696144     1.41460728
   16 H                    1.0000    -2.37834978    -0.94076817    -0.02083832
   17 H                    1.0000    -2.05844423     1.77849668     0.07261004
   18 H                    1.0000    -1.82460210     0.87034785    -1.47489595
   19 H                    1.0000     0.29146011     1.84614232    -1.42765428
   20 H                    1.0000     0.01097531     3.16737162     0.34173718
   21 H                    1.0000     2.69521923     0.87110712    -0.64476340
   22 H                    1.0000     2.60238323    -0.93414126    -0.27078439

      Atomic Mass 
      ----------- 

      B                 11.009310
      C                 12.000000
      O                 15.994910
      H                  1.007825


 Effective nuclear repulsion energy (a.u.)     455.1230814915

            Nuclear Dipole moment (a.u.) 
            ----------------------------
        X                 Y               Z
 ---------------- ---------------- ----------------
    -0.5494072474     0.1994504957     0.0158190171


  Step       Energy      Delta E   Gmax     Grms     Xrms     Xmax   Walltime
  ---- ---------------- -------- -------- -------- -------- -------- --------
@    1    -372.53418593 -7.1D-03  0.01182  0.00424  0.02635  0.06956    156.7
                                                                    

 Line search: 
     step= 1.00 grad=-4.3D-03 hess= 2.6D-03 energy=   -372.535902 mode=downhill
 new step= 0.83                   predicted energy=   -372.535974

          --------
          Step   2
          --------


                         Geometry "geometry" -> "geometry"
                         ---------------------------------

 Output coordinates in angstroms (scale by  1.889725989 to convert to a.u.)

  No.       Tag          Charge          X              Y              Z
 ---- ---------------- ---------- -------------- -------------- --------------
    1 B                    5.0000    -0.23242863    -2.04334133    -1.15395913
    2 C                    6.0000    -0.19666248    -1.04271914     0.08047668
    3 C                    6.0000     0.29216789    -1.80364922     1.34967052
    4 C                    6.0000    -1.55624593    -0.32595018     0.34106057
    5 C                    6.0000    -1.48634716     1.00647352    -0.44351087
    6 C                    6.0000     0.00496127     1.39707579    -0.47451118
    7 O                    8.0000     0.36730544     2.29034979     0.63571397
    8 C                    6.0000     0.76826547     0.09510484    -0.28393499
    9 C                    6.0000     2.08738053     0.00680506    -0.40245539
   10 H                    1.0000    -1.24078228    -2.20369414    -1.78283030
   11 H                    1.0000     0.75791847    -2.61714666    -1.51240789
   12 H                    1.0000    -0.44923761    -2.55076033     1.64763589
   13 H                    1.0000     1.24134357    -2.31587212     1.17508878
   14 H                    1.0000     0.42792678    -1.07894051     2.15878681
   15 H                    1.0000    -1.65947475    -0.12439604     1.41034131
   16 H                    1.0000    -2.38881901    -0.93856150    -0.00487384
   17 H                    1.0000    -2.05974324     1.79371251     0.05074372
   18 H                    1.0000    -1.83539848     0.86990030    -1.46843623
   19 H                    1.0000     0.28745442     1.85156272    -1.42911387
   20 H                    1.0000     0.01250132     3.17897252     0.35950850
   21 H                    1.0000     2.69618166     0.87362875    -0.64064551
   22 H                    1.0000     2.61063115    -0.93297017    -0.26800605

      Atomic Mass 
      ----------- 

      B                 11.009310
      C                 12.000000
      O                 15.994910
      H                  1.007825


 Effective nuclear repulsion energy (a.u.)     453.7182622287

            Nuclear Dipole moment (a.u.) 
            ----------------------------
        X                 Y               Z
 ---------------- ---------------- ----------------
    -0.6464375986    -0.1693741986     0.0235826627


  Step       Energy      Delta E   Gmax     Grms     Xrms     Xmax   Walltime
  ---- ---------------- -------- -------- -------- -------- -------- --------
@    2    -372.53597404 -1.8D-03  0.01000  0.00230  0.01962  0.06523    265.6
                                                                    

 Line search: 
     step= 1.00 grad=-1.8D-03 hess= 9.4D-04 energy=   -372.536822 mode=accept  
 new step= 1.00                   predicted energy=   -372.536822

          --------
          Step   3
          --------


                         Geometry "geometry" -> "geometry"
                         ---------------------------------

 Output coordinates in angstroms (scale by  1.889725989 to convert to a.u.)

  No.       Tag          Charge          X              Y              Z
 ---- ---------------- ---------- -------------- -------------- --------------
    1 B                    5.0000    -0.22676181    -2.01541515    -1.17447462
    2 C                    6.0000    -0.19770954    -1.05543561     0.07897213
    3 C                    6.0000     0.29032063    -1.80959626     1.35340187
    4 C                    6.0000    -1.55826836    -0.32842814     0.34098745
    5 C                    6.0000    -1.48693414     1.01028028    -0.44125849
    6 C                    6.0000     0.00945882     1.39621514    -0.48513694
    7 O                    8.0000     0.37726923     2.29784512     0.62856987
    8 C                    6.0000     0.77213451     0.09030475    -0.28832777
    9 C                    6.0000     2.09521897    -0.00041411    -0.40630606
   10 H                    1.0000    -1.24014661    -2.20216587    -1.79107719
   11 H                    1.0000     0.76281057    -2.61874653    -1.49787540
   12 H                    1.0000    -0.44396133    -2.56027997     1.65517377
   13 H                    1.0000     1.24233877    -2.31394407     1.17426442
   14 H                    1.0000     0.42465567    -1.09379371     2.16710949
   15 H                    1.0000    -1.65864984    -0.12021181     1.41144294
   16 H                    1.0000    -2.40088957    -0.93809647     0.01787618
   17 H                    1.0000    -2.07091657     1.80008956     0.02742147
   18 H                    1.0000    -1.85001582     0.86572243    -1.46383856
   19 H                    1.0000     0.28027568     1.85291049    -1.44057275
   20 H                    1.0000     0.01271375     3.19127847     0.37709500
   21 H                    1.0000     2.69567038     0.87417117    -0.63641031
   22 H                    1.0000     2.62028503    -0.93670524    -0.26269502

      Atomic Mass 
      ----------- 

      B                 11.009310
      C                 12.000000
      O                 15.994910
      H                  1.007825


 Effective nuclear repulsion energy (a.u.)     452.7525740691

            Nuclear Dipole moment (a.u.) 
            ----------------------------
        X                 Y               Z
 ---------------- ---------------- ----------------
    -0.3706883040    -0.1446207268    -0.3626515041


  Step       Energy      Delta E   Gmax     Grms     Xrms     Xmax   Walltime
  ---- ---------------- -------- -------- -------- -------- -------- --------
@    3    -372.53682157 -8.5D-04  0.00591  0.00203  0.01684  0.05277    327.2
                                                                    

 Line search: 
     step= 1.00 grad=-7.7D-04 hess= 2.7D-04 energy=   -372.537326 mode=downhill
 new step= 1.43                   predicted energy=   -372.537377

          --------
          Step   4
          --------


                         Geometry "geometry" -> "geometry"
                         ---------------------------------

 Output coordinates in angstroms (scale by  1.889725989 to convert to a.u.)

  No.       Tag          Charge          X              Y              Z
 ---- ---------------- ---------- -------------- -------------- --------------
    1 B                    5.0000    -0.23023628    -2.01915559    -1.16816965
    2 C                    6.0000    -0.20247669    -1.06135341     0.07911593
    3 C                    6.0000     0.29160755    -1.81568649     1.35212670
    4 C                    6.0000    -1.55792117    -0.32090728     0.35313149
    5 C                    6.0000    -1.48890635     1.00541512    -0.45789997
    6 C                    6.0000     0.00887210     1.40103594    -0.48674036
    7 O                    8.0000     0.39050903     2.29395204     0.62647668
    8 C                    6.0000     0.76959815     0.08790436    -0.29737592
    9 C                    6.0000     2.09658608    -0.00434980    -0.41141315
   10 H                    1.0000    -1.22734924    -2.18990199    -1.81481313
   11 H                    1.0000     0.76523714    -2.61129880    -1.48708189
   12 H                    1.0000    -0.44074175    -2.57071381     1.66232378
   13 H                    1.0000     1.24887378    -2.31297881     1.17176359
   14 H                    1.0000     0.42115382    -1.10067025     2.17172196
   15 H                    1.0000    -1.65572840    -0.11233927     1.42260213
   16 H                    1.0000    -2.41397607    -0.93149588     0.03949706
   17 H                    1.0000    -2.07744789     1.80264948     0.01154961
   18 H                    1.0000    -1.86049266     0.85988930    -1.47609449
   19 H                    1.0000     0.27298425     1.85669491    -1.45213957
   20 H                    1.0000     0.01211636     3.19309752     0.39765526
   21 H                    1.0000     2.69688859     0.87234825    -0.63304963
   22 H                    1.0000     2.62974804    -0.93655109    -0.25884493

      Atomic Mass 
      ----------- 

      B                 11.009310
      C                 12.000000
      O                 15.994910
      H                  1.007825


 Effective nuclear repulsion energy (a.u.)     452.0597415592

            Nuclear Dipole moment (a.u.) 
            ----------------------------
        X                 Y               Z
 ---------------- ---------------- ----------------
    -0.2866433824    -0.3270763707    -0.5447640791


  Step       Energy      Delta E   Gmax     Grms     Xrms     Xmax   Walltime
  ---- ---------------- -------- -------- -------- -------- -------- --------
@    4    -372.53737554 -5.5D-04  0.00489  0.00158  0.01579  0.04485    427.5
                                                                    

 Line search: 
     step= 1.00 grad=-4.7D-04 hess= 9.4D-05 energy=   -372.537756 mode=downhill
 new step= 2.53                   predicted energy=   -372.537975

          --------
          Step   5
          --------


                         Geometry "geometry" -> "geometry"
                         ---------------------------------

 Output coordinates in angstroms (scale by  1.889725989 to convert to a.u.)

  No.       Tag          Charge          X              Y              Z
 ---- ---------------- ---------- -------------- -------------- --------------
    1 B                    5.0000    -0.22548272    -2.00629780    -1.17147971
    2 C                    6.0000    -0.21418806    -1.05788131     0.08990534
    3 C                    6.0000     0.29368741    -1.81949111     1.35335521
    4 C                    6.0000    -1.56754079    -0.31520013     0.36389142
    5 C                    6.0000    -1.49959848     1.00508675    -0.45913697
    6 C                    6.0000     0.00232712     1.40221409    -0.50647478
    7 O                    8.0000     0.40573244     2.26831491     0.61174822
    8 C                    6.0000     0.76695122     0.08654704    -0.30294297
    9 C                    6.0000     2.09287256    -0.00592051    -0.41369537
   10 H                    1.0000    -1.19727513    -2.16273421    -1.85673743
   11 H                    1.0000     0.76565834    -2.60582048    -1.46210092
   12 H                    1.0000    -0.43022802    -2.58921087     1.66687166
   13 H                    1.0000     1.25337751    -2.31591084     1.16765800
   14 H                    1.0000     0.41696063    -1.09542031     2.17238653
   15 H                    1.0000    -1.64170420    -0.08675856     1.43794380
   16 H                    1.0000    -2.43411688    -0.92427591     0.07455180
   17 H                    1.0000    -2.09559966     1.80775282    -0.00573561
   18 H                    1.0000    -1.86076409     0.84203939    -1.48789894
   19 H                    1.0000     0.26706906     1.86223229    -1.47221855
   20 H                    1.0000     0.01199148     3.16908450     0.42956444
   21 H                    1.0000     2.70373260     0.86405460    -0.63047427
   22 H                    1.0000     2.63503605    -0.93681988    -0.25463941

      Atomic Mass 
      ----------- 

      B                 11.009310
      C                 12.000000
      O                 15.994910
      H                  1.007825


 Effective nuclear repulsion energy (a.u.)     451.9922970411

            Nuclear Dipole moment (a.u.) 
            ----------------------------
        X                 Y               Z
 ---------------- ---------------- ----------------
    -0.4541965617    -0.5378695225    -0.8217103326


  Step       Energy      Delta E   Gmax     Grms     Xrms     Xmax   Walltime
  ---- ---------------- -------- -------- -------- -------- -------- --------
@    5    -372.53797319 -6.0D-04  0.00380  0.00160  0.02670  0.07923    527.1
                                                                    

 Line search: 
     step= 1.00 grad=-5.5D-04 hess= 8.2D-05 energy=   -372.538440 mode=downhill
 new step= 3.35                   predicted energy=   -372.538893

          --------
          Step   6
          --------


                         Geometry "geometry" -> "geometry"
                         ---------------------------------

 Output coordinates in angstroms (scale by  1.889725989 to convert to a.u.)

  No.       Tag          Charge          X              Y              Z
 ---- ---------------- ---------- -------------- -------------- --------------
    1 B                    5.0000    -0.21928146    -1.98989027    -1.19002053
    2 C                    6.0000    -0.22621089    -1.06146922     0.09337100
    3 C                    6.0000     0.28973979    -1.81333745     1.36072409
    4 C                    6.0000    -1.56429344    -0.29710536     0.38989263
    5 C                    6.0000    -1.51054627     1.00338055    -0.47284809
    6 C                    6.0000    -0.00062814     1.39061952    -0.52425420
    7 O                    8.0000     0.42671067     2.22197564     0.59649178
    8 C                    6.0000     0.75976387     0.07188065    -0.33143410
    9 C                    6.0000     2.09146121    -0.01239694    -0.41063633
   10 H                    1.0000    -1.15016936    -2.09665340    -1.94157495
   11 H                    1.0000     0.78079481    -2.60642388    -1.40842069
   12 H                    1.0000    -0.43037503    -2.58060849     1.67116079
   13 H                    1.0000     1.25043502    -2.30716414     1.15752022
   14 H                    1.0000     0.41877695    -1.10591406     2.18369241
   15 H                    1.0000    -1.61186462    -0.02820659     1.45302984
   16 H                    1.0000    -2.43703057    -0.91088642     0.14245734
   17 H                    1.0000    -2.12107625     1.80166060    -0.04055815
   18 H                    1.0000    -1.86109215     0.80004369    -1.49367947
   19 H                    1.0000     0.25153616     1.86496425    -1.48793470
   20 H                    1.0000     0.00740734     3.11611098     0.48465365
   21 H                    1.0000     2.68446312     0.86969554    -0.63883381
   22 H                    1.0000     2.62037764    -0.94469071    -0.24845724

      Atomic Mass 
      ----------- 

      B                 11.009310
      C                 12.000000
      O                 15.994910
      H                  1.007825


 Effective nuclear repulsion energy (a.u.)     452.8471889476

            Nuclear Dipole moment (a.u.) 
            ----------------------------
        X                 Y               Z
 ---------------- ---------------- ----------------
    -0.4626466696    -1.1570573786    -1.3534655829


  Step       Energy      Delta E   Gmax     Grms     Xrms     Xmax   Walltime
  ---- ---------------- -------- -------- -------- -------- -------- --------
@    6    -372.53889991 -9.3D-04  0.00572  0.00209  0.04894  0.16032    634.2
                                                                    

 Line search: 
     step= 1.00 grad=-7.8D-04 hess= 1.5D-04 energy=   -372.539532 mode=downhill
 new step= 2.65                   predicted energy=   -372.539933

          --------
          Step   7
          --------


                         Geometry "geometry" -> "geometry"
                         ---------------------------------

 Output coordinates in angstroms (scale by  1.889725989 to convert to a.u.)

  No.       Tag          Charge          X              Y              Z
 ---- ---------------- ---------- -------------- -------------- --------------
    1 B                    5.0000    -0.20785297    -1.96198664    -1.20217166
    2 C                    6.0000    -0.23830954    -1.06430214     0.10357134
    3 C                    6.0000     0.29160244    -1.80858604     1.36229836
    4 C                    6.0000    -1.56071696    -0.28175581     0.40837442
    5 C                    6.0000    -1.51392796     0.98644295    -0.48720246
    6 C                    6.0000    -0.00945128     1.38056531    -0.54168493
    7 O                    8.0000     0.44364936     2.16528487     0.60815723
    8 C                    6.0000     0.73836325     0.06128806    -0.34812738
    9 C                    6.0000     2.06281590    -0.02570204    -0.43718205
   10 H                    1.0000    -1.07576685    -2.00001202    -2.05098855
   11 H                    1.0000     0.78316828    -2.63085774    -1.34543228
   12 H                    1.0000    -0.42604157    -2.56912080     1.67457698
   13 H                    1.0000     1.24665821    -2.29240107     1.15243616
   14 H                    1.0000     0.42726904    -1.09900540     2.18380655
   15 H                    1.0000    -1.56645611     0.04166324     1.45947122
   16 H                    1.0000    -2.44877191    -0.89341374     0.22796864
   17 H                    1.0000    -2.13452775     1.80514702    -0.09529615
   18 H                    1.0000    -1.86246254     0.74568771    -1.49289094
   19 H                    1.0000     0.23480625     1.86195312    -1.49635948
   20 H                    1.0000    -0.01101464     3.05300181     0.54690574
   21 H                    1.0000     2.66772706     0.85162873    -0.65285123
   22 H                    1.0000     2.60813871    -0.93993492    -0.23303805

      Atomic Mass 
      ----------- 

      B                 11.009310
      C                 12.000000
      O                 15.994910
      H                  1.007825


 Effective nuclear repulsion energy (a.u.)     454.8488713846

            Nuclear Dipole moment (a.u.) 
            ----------------------------
        X                 Y               Z
 ---------------- ---------------- ----------------
    -0.8033012396    -2.0137232521    -1.7139965418


  Step       Energy      Delta E   Gmax     Grms     Xrms     Xmax   Walltime
  ---- ---------------- -------- -------- -------- -------- -------- --------
@    7    -372.53984504 -9.5D-04  0.00906  0.00258  0.06230  0.20676    742.2
                                                                    

 Line search: 
     step= 1.00 grad=-1.1D-03 hess= 3.1D-04 energy=   -372.540646 mode=downhill
 new step= 1.77                   predicted energy=   -372.540834

          --------
          Step   8
          --------


                         Geometry "geometry" -> "geometry"
                         ---------------------------------

 Output coordinates in angstroms (scale by  1.889725989 to convert to a.u.)

  No.       Tag          Charge          X              Y              Z
 ---- ---------------- ---------- -------------- -------------- --------------
    1 B                    5.0000    -0.19765271    -1.95005354    -1.19811036
    2 C                    6.0000    -0.23949130    -1.05803924     0.10749628
    3 C                    6.0000     0.29216513    -1.79694271     1.35742323
    4 C                    6.0000    -1.55545242    -0.27531981     0.40989373
    5 C                    6.0000    -1.50940019     0.97568401    -0.49096118
    6 C                    6.0000    -0.01544484     1.36402846    -0.52919947
    7 O                    8.0000     0.41389734     2.16598898     0.62438585
    8 C                    6.0000     0.72909088     0.05566539    -0.35150041
    9 C                    6.0000     2.05389976    -0.03139914    -0.44674090
   10 H                    1.0000    -1.04416593    -1.96042159    -2.05594924
   11 H                    1.0000     0.75752615    -2.66324324    -1.34547800
   12 H                    1.0000    -0.41619592    -2.57147586     1.66999611
   13 H                    1.0000     1.24161023    -2.28964833     1.15598572
   14 H                    1.0000     0.43716608    -1.07945164     2.17459988
   15 H                    1.0000    -1.54567883     0.05010335     1.45384838
   16 H                    1.0000    -2.44508830    -0.88241558     0.23658926
   17 H                    1.0000    -2.12466574     1.79726255    -0.10502687
   18 H                    1.0000    -1.84621521     0.73069848    -1.49994636
   19 H                    1.0000     0.24355493     1.86171433    -1.47022739
   20 H                    1.0000    -0.02493903     3.04792592     0.54783850
   21 H                    1.0000     2.65358502     0.84228283    -0.67057302
   22 H                    1.0000     2.59079327    -0.94735916    -0.23000225

      Atomic Mass 
      ----------- 

      B                 11.009310
      C                 12.000000
      O                 15.994910
      H                  1.007825


 Effective nuclear repulsion energy (a.u.)     456.6269917853

            Nuclear Dipole moment (a.u.) 
            ----------------------------
        X                 Y               Z
 ---------------- ---------------- ----------------
    -1.2615732801    -2.0490713628    -1.5029795475


  Step       Energy      Delta E   Gmax     Grms     Xrms     Xmax   Walltime
  ---- ---------------- -------- -------- -------- -------- -------- --------
@    8    -372.54083604 -9.9D-04  0.00681  0.00211  0.02457  0.07482    842.3
                                                                    

 Restricting large step in mode    1 eval= 3.9D-03 step=-3.4D-01 new=-3.0D-01
 Line search: 
     step= 1.00 grad=-1.1D-03 hess= 3.2D-04 energy=   -372.541643 mode=downhill
 new step= 1.76                   predicted energy=   -372.541827

          --------
          Step   9
          --------


                         Geometry "geometry" -> "geometry"
                         ---------------------------------

 Output coordinates in angstroms (scale by  1.889725989 to convert to a.u.)

  No.       Tag          Charge          X              Y              Z
 ---- ---------------- ---------- -------------- -------------- --------------
    1 B                    5.0000    -0.18185014    -1.91795019    -1.20152132
    2 C                    6.0000    -0.25452382    -1.06136566     0.11873063
    3 C                    6.0000     0.29574128    -1.78838318     1.35931004
    4 C                    6.0000    -1.55397261    -0.25440801     0.43806994
    5 C                    6.0000    -1.51667584     0.95975946    -0.51282566
    6 C                    6.0000    -0.02790358     1.34658644    -0.54943269
    7 O                    8.0000     0.40013233     2.11772338     0.63842585
    8 C                    6.0000     0.71557573     0.03975327    -0.37326600
    9 C                    6.0000     2.04683138    -0.05203986    -0.46104209
   10 H                    1.0000    -0.95361619    -1.83181043    -2.14474496
   11 H                    1.0000     0.73216852    -2.69825417    -1.29549211
   12 H                    1.0000    -0.40866641    -2.57135834     1.68077963
   13 H                    1.0000     1.25213179    -2.27790929     1.14647875
   14 H                    1.0000     0.44444579    -1.07674508     2.18153819
   15 H                    1.0000    -1.48528878     0.10971839     1.47380384
   16 H                    1.0000    -2.46830717    -0.85407097     0.32365849
   17 H                    1.0000    -2.14589175     1.78474207    -0.16579825
   18 H                    1.0000    -1.83081125     0.67252448    -1.53069857
   19 H                    1.0000     0.24250765     1.87021237    -1.47434526
   20 H                    1.0000    -0.06018435     3.01139404     0.61602883
   21 H                    1.0000     2.63233155     0.82556218    -0.70139801
   22 H                    1.0000     2.57472428    -0.96809643    -0.22191779

      Atomic Mass 
      ----------- 

      B                 11.009310
      C                 12.000000
      O                 15.994910
      H                  1.007825


 Effective nuclear repulsion energy (a.u.)     457.6109426081

            Nuclear Dipole moment (a.u.) 
            ----------------------------
        X                 Y               Z
 ---------------- ---------------- ----------------
    -1.7994220054    -2.8584756991    -1.6913842241


  Step       Energy      Delta E   Gmax     Grms     Xrms     Xmax   Walltime
  ---- ---------------- -------- -------- -------- -------- -------- --------
@    9    -372.54170232 -8.7D-04  0.00897  0.00314  0.06648  0.24304    957.3
                                                                    

 Line search: 
     step= 1.00 grad=-1.4D-03 hess= 5.1D-04 energy=   -372.542573 mode=downhill
 new step= 1.36                   predicted energy=   -372.542639

          --------
          Step  10
          --------


                         Geometry "geometry" -> "geometry"
                         ---------------------------------

 Output coordinates in angstroms (scale by  1.889725989 to convert to a.u.)

  No.       Tag          Charge          X              Y              Z
 ---- ---------------- ---------- -------------- -------------- --------------
    1 B                    5.0000    -0.18020197    -1.91182928    -1.20259273
    2 C                    6.0000    -0.24650253    -1.06409334     0.11776168
    3 C                    6.0000     0.29863021    -1.79049645     1.36194641
    4 C                    6.0000    -1.55018593    -0.25948859     0.43376200
    5 C                    6.0000    -1.51136515     0.95511938    -0.51807412
    6 C                    6.0000    -0.02719792     1.35374519    -0.54611317
    7 O                    8.0000     0.36012602     2.12165912     0.66695604
    8 C                    6.0000     0.72087168     0.04492905    -0.35735653
    9 C                    6.0000     2.04921388    -0.05918386    -0.46242575
   10 H                    1.0000    -0.95060509    -1.80441293    -2.10420709
   11 H                    1.0000     0.70809465    -2.70652282    -1.31360229
   12 H                    1.0000    -0.41985132    -2.55578575     1.68727293
   13 H                    1.0000     1.26194056    -2.27543697     1.14322553
   14 H                    1.0000     0.44634063    -1.07841220     2.18298766
   15 H                    1.0000    -1.47597078     0.09895383     1.46777160
   16 H                    1.0000    -2.46314598    -0.85267576     0.31645928
   17 H                    1.0000    -2.14556487     1.77356983    -0.17269926
   18 H                    1.0000    -1.82155295     0.67087122    -1.53667593
   19 H                    1.0000     0.25611719     1.87158222    -1.46916878
   20 H                    1.0000    -0.07888557     3.01916090     0.60153000
   21 H                    1.0000     2.64256844     0.81125020    -0.72176174
   22 H                    1.0000     2.57602517    -0.97691852    -0.23065425

      Atomic Mass 
      ----------- 

      B                 11.009310
      C                 12.000000
      O                 15.994910
      H                  1.007825


 Effective nuclear repulsion energy (a.u.)     457.6691319330

            Nuclear Dipole moment (a.u.) 
            ----------------------------
        X                 Y               Z
 ---------------- ---------------- ----------------
    -2.0479075324    -2.8486899389    -1.2280092278


  Step       Energy      Delta E   Gmax     Grms     Xrms     Xmax   Walltime
  ---- ---------------- -------- -------- -------- -------- -------- --------
@   10    -372.54263819 -9.4D-04  0.00697  0.00222  0.02252  0.07661   1060.9
                                                                    

 Restricting large step in mode    1 eval= 4.1D-03 step= 3.9D-01 new= 3.0D-01
 Line search: 
     step= 1.00 grad=-1.3D-03 hess= 3.4D-04 energy=   -372.543637 mode=downhill
 new step= 1.95                   predicted energy=   -372.543949

          --------
          Step  11
          --------


                         Geometry "geometry" -> "geometry"
                         ---------------------------------

 Output coordinates in angstroms (scale by  1.889725989 to convert to a.u.)

  No.       Tag          Charge          X              Y              Z
 ---- ---------------- ---------- -------------- -------------- --------------
    1 B                    5.0000    -0.17056624    -1.87632337    -1.20849716
    2 C                    6.0000    -0.24953406    -1.06983434     0.13912623
    3 C                    6.0000     0.30226950    -1.78447647     1.38224919
    4 C                    6.0000    -1.54192160    -0.24854198     0.44802344
    5 C                    6.0000    -1.51512133     0.93359538    -0.55265744
    6 C                    6.0000    -0.03522634     1.34704820    -0.54119756
    7 O                    8.0000     0.29893768     2.08347898     0.70170587
    8 C                    6.0000     0.71619882     0.03393517    -0.35942850
    9 C                    6.0000     2.03402094    -0.08292552    -0.48452208
   10 H                    1.0000    -0.86233177    -1.62552485    -2.16817606
   11 H                    1.0000     0.66104667    -2.74281360    -1.27514614
   12 H                    1.0000    -0.39612734    -2.55997904     1.70438055
   13 H                    1.0000     1.25549323    -2.27067065     1.13486306
   14 H                    1.0000     0.45524573    -1.06376883     2.19010826
   15 H                    1.0000    -1.41609240     0.16260510     1.46256935
   16 H                    1.0000    -2.46210473    -0.83679272     0.39842902
   17 H                    1.0000    -2.17078444     1.76328085    -0.25112157
   18 H                    1.0000    -1.80681491     0.60464176    -1.55172566
   19 H                    1.0000     0.26764224     1.88528892    -1.45287878
   20 H                    1.0000    -0.13557478     2.97035366     0.64258340
   21 H                    1.0000     2.65745433     0.76007249    -0.77873185
   22 H                    1.0000     2.56278922    -0.99706468    -0.23561408

      Atomic Mass 
      ----------- 

      B                 11.009310
      C                 12.000000
      O                 15.994910
      H                  1.007825


 Effective nuclear repulsion energy (a.u.)     459.0184103957

            Nuclear Dipole moment (a.u.) 
            ----------------------------
        X                 Y               Z
 ---------------- ---------------- ----------------
    -2.9997004071    -3.5741406469    -0.7931928275


  Step       Energy      Delta E   Gmax     Grms     Xrms     Xmax   Walltime
  ---- ---------------- -------- -------- -------- -------- -------- --------
@   11    -372.54377434 -1.1D-03  0.01146  0.00290  0.07485  0.33805   1162.8
                                                                    

 Line search: 
     step= 1.00 grad=-1.3D-03 hess= 5.2D-04 energy=   -372.544546 mode=downhill
 new step= 1.25                   predicted energy=   -372.544578

          --------
          Step  12
          --------


                         Geometry "geometry" -> "geometry"
                         ---------------------------------

 Output coordinates in angstroms (scale by  1.889725989 to convert to a.u.)

  No.       Tag          Charge          X              Y              Z
 ---- ---------------- ---------- -------------- -------------- --------------
    1 B                    5.0000    -0.17331930    -1.87255192    -1.20144804
    2 C                    6.0000    -0.24593302    -1.06490730     0.14567624
    3 C                    6.0000     0.30406791    -1.79324020     1.38381665
    4 C                    6.0000    -1.54177080    -0.25063864     0.44578671
    5 C                    6.0000    -1.51907712     0.93574920    -0.55468914
    6 C                    6.0000    -0.03500257     1.35040287    -0.53469402
    7 O                    8.0000     0.28713170     2.09844467     0.68849577
    8 C                    6.0000     0.72968980     0.04004223    -0.34446632
    9 C                    6.0000     2.04893206    -0.08724174    -0.48643128
   10 H                    1.0000    -0.86512652    -1.60990289    -2.13734047
   11 H                    1.0000     0.64328197    -2.73559796    -1.29684648
   12 H                    1.0000    -0.38994923    -2.57155521     1.71473226
   13 H                    1.0000     1.25343563    -2.27841365     1.14371202
   14 H                    1.0000     0.45421757    -1.07423573     2.19733389
   15 H                    1.0000    -1.42754325     0.15437234     1.45442388
   16 H                    1.0000    -2.45190807    -0.84764259     0.38820089
   17 H                    1.0000    -2.17449628     1.76240734    -0.25361284
   18 H                    1.0000    -1.80357454     0.60359269    -1.55483774
   19 H                    1.0000     0.27910957     1.89533807    -1.44037838
   20 H                    1.0000    -0.15932009     2.99180866     0.62674593
   21 H                    1.0000     2.67129900     0.75021243    -0.79238920
   22 H                    1.0000     2.56475395    -1.01085821    -0.24744884

      Atomic Mass 
      ----------- 

      B                 11.009310
      C                 12.000000
      O                 15.994910
      H                  1.007825


 Effective nuclear repulsion energy (a.u.)     458.5246783612

            Nuclear Dipole moment (a.u.) 
            ----------------------------
        X                 Y               Z
 ---------------- ---------------- ----------------
    -2.8911400563    -3.3347586968    -0.6935031976


  Step       Energy      Delta E   Gmax     Grms     Xrms     Xmax   Walltime
  ---- ---------------- -------- -------- -------- -------- -------- --------
@   12    -372.54457804 -8.0D-04  0.00480  0.00172  0.01985  0.05827   1265.0
                                                                    

 Line search: 
     step= 1.00 grad=-8.0D-04 hess= 3.8D-04 energy=   -372.544994 mode=accept  
 new step= 1.00                   predicted energy=   -372.544994

          --------
          Step  13
          --------


                         Geometry "geometry" -> "geometry"
                         ---------------------------------

 Output coordinates in angstroms (scale by  1.889725989 to convert to a.u.)

  No.       Tag          Charge          X              Y              Z
 ---- ---------------- ---------- -------------- -------------- --------------
    1 B                    5.0000    -0.16588791    -1.84438679    -1.20186311
    2 C                    6.0000    -0.24643323    -1.05952968     0.15781684
    3 C                    6.0000     0.30519135    -1.79543066     1.38744447
    4 C                    6.0000    -1.53731243    -0.24238145     0.45802898
    5 C                    6.0000    -1.51925432     0.92417566    -0.56561963
    6 C                    6.0000    -0.03680262     1.34859276    -0.53948934
    7 O                    8.0000     0.25935539     2.08397582     0.70158716
    8 C                    6.0000     0.73121355     0.04051864    -0.34064940
    9 C                    6.0000     2.05303215    -0.10088600    -0.50002304
   10 H                    1.0000    -0.81682530    -1.52173278    -2.15802383
   11 H                    1.0000     0.61172487    -2.75417894    -1.29169568
   12 H                    1.0000    -0.39278587    -2.56899290     1.72711628
   13 H                    1.0000     1.25734786    -2.27505304     1.15004673
   14 H                    1.0000     0.46168862    -1.08451278     2.20926830
   15 H                    1.0000    -1.40759811     0.18504359     1.45534802
   16 H                    1.0000    -2.44806730    -0.84458752     0.42303745
   17 H                    1.0000    -2.18371102     1.74946242    -0.28690860
   18 H                    1.0000    -1.78940219     0.56930290    -1.56789394
   19 H                    1.0000     0.28748988     1.90224757    -1.43133378
   20 H                    1.0000    -0.19875981     2.97290963     0.63911101
   21 H                    1.0000     2.66972317     0.73147787    -0.82485008
   22 H                    1.0000     2.55497167    -1.03044983    -0.25611334

      Atomic Mass 
      ----------- 

      B                 11.009310
      C                 12.000000
      O                 15.994910
      H                  1.007825


 Effective nuclear repulsion energy (a.u.)     458.9507266490

            Nuclear Dipole moment (a.u.) 
            ----------------------------
        X                 Y               Z
 ---------------- ---------------- ----------------
    -3.1199247912    -3.4559982418    -0.4997500463


  Step       Energy      Delta E   Gmax     Grms     Xrms     Xmax   Walltime
  ---- ---------------- -------- -------- -------- -------- -------- --------
@   13    -372.54499405 -4.2D-04  0.00444  0.00145  0.03698  0.16662   1333.8
                                                                    

 Line search: 
     step= 1.00 grad=-4.7D-04 hess= 1.3D-04 energy=   -372.545335 mode=downhill
 new step= 1.77                   predicted energy=   -372.545414

          --------
          Step  14
          --------


                         Geometry "geometry" -> "geometry"
                         ---------------------------------

 Output coordinates in angstroms (scale by  1.889725989 to convert to a.u.)

  No.       Tag          Charge          X              Y              Z
 ---- ---------------- ---------- -------------- -------------- --------------
    1 B                    5.0000    -0.16664415    -1.82558809    -1.19894256
    2 C                    6.0000    -0.23804968    -1.05262822     0.16936626
    3 C                    6.0000     0.30011951    -1.79688100     1.40283617
    4 C                    6.0000    -1.53347891    -0.24369399     0.46108795
    5 C                    6.0000    -1.51201882     0.91432816    -0.56705859
    6 C                    6.0000    -0.02793034     1.35402488    -0.53577468
    7 O                    8.0000     0.24682525     2.09656380     0.70458454
    8 C                    6.0000     0.73908790     0.04663437    -0.33370572
    9 C                    6.0000     2.05841969    -0.10428726    -0.51077268
   10 H                    1.0000    -0.80509404    -1.48760888    -2.14456318
   11 H                    1.0000     0.59232603    -2.74427010    -1.31565275
   12 H                    1.0000    -0.40098289    -2.57550532     1.73088107
   13 H                    1.0000     1.25240068    -2.28341225     1.16590238
   14 H                    1.0000     0.46797307    -1.09954137     2.22908814
   15 H                    1.0000    -1.42394822     0.19963856     1.45439093
   16 H                    1.0000    -2.43712945    -0.85549143     0.42069716
   17 H                    1.0000    -2.18126936     1.73589253    -0.29417532
   18 H                    1.0000    -1.78278927     0.55919825    -1.56629237
   19 H                    1.0000     0.29177567     1.90415916    -1.42402553
   20 H                    1.0000    -0.23046548     2.96654642     0.61949614
   21 H                    1.0000     2.68169549     0.71540776    -0.84828416
   22 H                    1.0000     2.55807571    -1.03790155    -0.27474170

      Atomic Mass 
      ----------- 

      B                 11.009310
      C                 12.000000
      O                 15.994910
      H                  1.007825


 Effective nuclear repulsion energy (a.u.)     458.8646315414

            Nuclear Dipole moment (a.u.) 
            ----------------------------
        X                 Y               Z
 ---------------- ---------------- ----------------
    -2.9463751715    -3.1243528928    -0.1690236411


  Step       Energy      Delta E   Gmax     Grms     Xrms     Xmax   Walltime
  ---- ---------------- -------- -------- -------- -------- -------- --------
@   14    -372.54541708 -4.2D-04  0.00627  0.00147  0.02261  0.06448   1435.5
                                                                    

 Line search: 
     step= 1.00 grad=-3.6D-04 hess= 1.2D-04 energy=   -372.545657 mode=downhill
 new step= 1.52                   predicted energy=   -372.545689

          --------
          Step  15
          --------


                         Geometry "geometry" -> "geometry"
                         ---------------------------------

 Output coordinates in angstroms (scale by  1.889725989 to convert to a.u.)

  No.       Tag          Charge          X              Y              Z
 ---- ---------------- ---------- -------------- -------------- --------------
    1 B                    5.0000    -0.16169524    -1.80820636    -1.19676479
    2 C                    6.0000    -0.23441657    -1.05181604     0.18390987
    3 C                    6.0000     0.30383298    -1.80437930     1.41561982
    4 C                    6.0000    -1.52938173    -0.23853591     0.46865309
    5 C                    6.0000    -1.51115814     0.90555755    -0.57207175
    6 C                    6.0000    -0.02691255     1.34555963    -0.53307129
    7 O                    8.0000     0.24311696     2.10086115     0.69963712
    8 C                    6.0000     0.74363869     0.04448457    -0.32939369
    9 C                    6.0000     2.05626456    -0.11321087    -0.52522532
   10 H                    1.0000    -0.77937987    -1.43423330    -2.15220207
   11 H                    1.0000     0.58184666    -2.73463175    -1.32514138
   12 H                    1.0000    -0.41426714    -2.57037736     1.73363993
   13 H                    1.0000     1.25200268    -2.29666479     1.17868569
   14 H                    1.0000     0.47070818    -1.10951411     2.24531176
   15 H                    1.0000    -1.43096760     0.22111287     1.45901489
   16 H                    1.0000    -2.43176068    -0.85520386     0.43332619
   17 H                    1.0000    -2.18325416     1.72815107    -0.30994637
   18 H                    1.0000    -1.77419717     0.53908862    -1.56902495
   19 H                    1.0000     0.29298094     1.90607640    -1.42008601
   20 H                    1.0000    -0.26561704     2.95516102     0.62175384
   21 H                    1.0000     2.68571275     0.70028833    -0.87274328
   22 H                    1.0000     2.56180188    -1.04398310    -0.28953981

      Atomic Mass 
      ----------- 

      B                 11.009310
      C                 12.000000
      O                 15.994910
      H                  1.007825


 Effective nuclear repulsion energy (a.u.)     458.9128168195

            Nuclear Dipole moment (a.u.) 
            ----------------------------
        X                 Y               Z
 ---------------- ---------------- ----------------
    -2.8095078201    -3.2180423640    -0.0059606461


  Step       Energy      Delta E   Gmax     Grms     Xrms     Xmax   Walltime
  ---- ---------------- -------- -------- -------- -------- -------- --------
@   15    -372.54568573 -2.7D-04  0.00201  0.00088  0.02357  0.10087   1536.9
                                                                    

 Line search: 
     step= 1.00 grad=-2.6D-04 hess= 7.7D-05 energy=   -372.545871 mode=downhill
 new step= 1.71                   predicted energy=   -372.545910

          --------
          Step  16
          --------


                         Geometry "geometry" -> "geometry"
                         ---------------------------------

 Output coordinates in angstroms (scale by  1.889725989 to convert to a.u.)

  No.       Tag          Charge          X              Y              Z
 ---- ---------------- ---------- -------------- -------------- --------------
    1 B                    5.0000    -0.15595639    -1.80017166    -1.19786442
    2 C                    6.0000    -0.23081998    -1.04976849     0.18828620
    3 C                    6.0000     0.30214884    -1.80991238     1.41921411
    4 C                    6.0000    -1.53108409    -0.23557828     0.47294462
    5 C                    6.0000    -1.50702608     0.90683132    -0.56531489
    6 C                    6.0000    -0.02415917     1.34206729    -0.53873244
    7 O                    8.0000     0.26372246     2.11206739     0.68798041
    8 C                    6.0000     0.74663672     0.04519946    -0.32588170
    9 C                    6.0000     2.05781390    -0.11261639    -0.52952123
   10 H                    1.0000    -0.78747389    -1.44536576    -2.14144158
   11 H                    1.0000     0.60259024    -2.71411034    -1.33336152
   12 H                    1.0000    -0.41978323    -2.57529312     1.72897402
   13 H                    1.0000     1.24453889    -2.31762193     1.19193959
   14 H                    1.0000     0.46704203    -1.11577171     2.25347332
   15 H                    1.0000    -1.45320919     0.21738358     1.46881906
   16 H                    1.0000    -2.43262034    -0.85201726     0.42113116
   17 H                    1.0000    -2.17447070     1.73455432    -0.30207044
   18 H                    1.0000    -1.77256366     0.54161822    -1.56292988
   19 H                    1.0000     0.28692038     1.89137611    -1.43747439
   20 H                    1.0000    -0.27339039     2.95425094     0.61990051
   21 H                    1.0000     2.67441273     0.71126613    -0.87520445
   22 H                    1.0000     2.56562931    -1.04280298    -0.29852457

      Atomic Mass 
      ----------- 

      B                 11.009310
      C                 12.000000
      O                 15.994910
      H                  1.007825


 Effective nuclear repulsion energy (a.u.)     458.6041298808

            Nuclear Dipole moment (a.u.) 
            ----------------------------
        X                 Y               Z
 ---------------- ---------------- ----------------
    -2.3835477033    -3.0226503875    -0.0496620184


  Step       Energy      Delta E   Gmax     Grms     Xrms     Xmax   Walltime
  ---- ---------------- -------- -------- -------- -------- -------- --------
@   16    -372.54590858 -2.2D-04  0.00331  0.00107  0.01663  0.04203   1638.8
                                                                    

 Line search: 
     step= 1.00 grad=-1.8D-04 hess= 4.8D-05 energy=   -372.546038 mode=downhill
 new step= 1.84                   predicted energy=   -372.546072

          --------
          Step  17
          --------


                         Geometry "geometry" -> "geometry"
                         ---------------------------------

 Output coordinates in angstroms (scale by  1.889725989 to convert to a.u.)

  No.       Tag          Charge          X              Y              Z
 ---- ---------------- ---------- -------------- -------------- --------------
    1 B                    5.0000    -0.14627637    -1.79168922    -1.19304944
    2 C                    6.0000    -0.22979843    -1.04865028     0.19660728
    3 C                    6.0000     0.29721501    -1.81533335     1.42430861
    4 C                    6.0000    -1.53363756    -0.23231413     0.47887661
    5 C                    6.0000    -1.50282537     0.90710522    -0.56418959
    6 C                    6.0000    -0.02235523     1.34231350    -0.54388812
    7 O                    8.0000     0.26300294     2.11722636     0.68186724
    8 C                    6.0000     0.74603578     0.04264473    -0.32205131
    9 C                    6.0000     2.05799969    -0.11314705    -0.53540508
   10 H                    1.0000    -0.77818012    -1.41481032    -2.13907294
   11 H                    1.0000     0.61694677    -2.69874747    -1.33457935
   12 H                    1.0000    -0.42549241    -2.57861816     1.73251768
   13 H                    1.0000     1.23825082    -2.33146215     1.20112693
   14 H                    1.0000     0.46509575    -1.12617318     2.26190527
   15 H                    1.0000    -1.45809213     0.21834831     1.47516644
   16 H                    1.0000    -2.43354944    -0.84622419     0.42140071
   17 H                    1.0000    -2.17120144     1.73760508    -0.30817718
   18 H                    1.0000    -1.76807442     0.53247504    -1.55706811
   19 H                    1.0000     0.28726268     1.87536188    -1.45234132
   20 H                    1.0000    -0.29040753     2.94684174     0.62595967
   21 H                    1.0000     2.67142971     0.70773992    -0.89500957
   22 H                    1.0000     2.56554971    -1.04490780    -0.31056294

      Atomic Mass 
      ----------- 

      B                 11.009310
      C                 12.000000
      O                 15.994910
      H                  1.007825


 Effective nuclear repulsion energy (a.u.)     458.5479365299

            Nuclear Dipole moment (a.u.) 
            ----------------------------
        X                 Y               Z
 ---------------- ---------------- ----------------
    -2.3281747111    -2.9243408201     0.0311924707


  Step       Energy      Delta E   Gmax     Grms     Xrms     Xmax   Walltime
  ---- ---------------- -------- -------- -------- -------- -------- --------
@   17    -372.54607018 -1.6D-04  0.00334  0.00086  0.01526  0.05774   1725.1
                                                                    

 Line search: 
     step= 1.00 grad=-1.5D-04 hess= 5.2D-05 energy=   -372.546171 mode=downhill
 new step= 1.47                   predicted energy=   -372.546182

          --------
          Step  18
          --------


                         Geometry "geometry" -> "geometry"
                         ---------------------------------

 Output coordinates in angstroms (scale by  1.889725989 to convert to a.u.)

  No.       Tag          Charge          X              Y              Z
 ---- ---------------- ---------- -------------- -------------- --------------
    1 B                    5.0000    -0.13733820    -1.77803523    -1.19500837
    2 C                    6.0000    -0.22779132    -1.04800132     0.20300428
    3 C                    6.0000     0.29317511    -1.82081131     1.42808303
    4 C                    6.0000    -1.53400219    -0.23306067     0.47936514
    5 C                    6.0000    -1.50218844     0.90926604    -0.56110433
    6 C                    6.0000    -0.02286074     1.34168687    -0.54293706
    7 O                    8.0000     0.26964131     2.12505923     0.66960872
    8 C                    6.0000     0.74567285     0.04178150    -0.31832907
    9 C                    6.0000     2.05698936    -0.11373429    -0.54049851
   10 H                    1.0000    -0.77683419    -1.40527282    -2.13158130
   11 H                    1.0000     0.63482857    -2.68530925    -1.33432642
   12 H                    1.0000    -0.44031495    -2.57449556     1.73496421
   13 H                    1.0000     1.23420114    -2.33776879     1.20605937
   14 H                    1.0000     0.46307636    -1.13639948     2.26738718
   15 H                    1.0000    -1.46160192     0.21283635     1.47901107
   16 H                    1.0000    -2.43637785    -0.84648331     0.41805080
   17 H                    1.0000    -2.16866725     1.73962160    -0.30679178
   18 H                    1.0000    -1.76717850     0.52967181    -1.55101055
   19 H                    1.0000     0.28819951     1.86260127    -1.45880894
   20 H                    1.0000    -0.30012478     2.94315457     0.62767909
   21 H                    1.0000     2.66953250     0.70328363    -0.90946454
   22 H                    1.0000     2.56886203    -1.04400637    -0.31901056

      Atomic Mass 
      ----------- 

      B                 11.009310
      C                 12.000000
      O                 15.994910
      H                  1.007825


 Effective nuclear repulsion energy (a.u.)     458.6415631971

            Nuclear Dipole moment (a.u.) 
            ----------------------------
        X                 Y               Z
 ---------------- ---------------- ----------------
    -2.2071850859    -2.7694081646    -0.0198676180


  Step       Energy      Delta E   Gmax     Grms     Xrms     Xmax   Walltime
  ---- ---------------- -------- -------- -------- -------- -------- --------
@   18    -372.54618186 -1.1D-04  0.00239  0.00067  0.01179  0.03379   1818.9
                                                                    

 Line search: 
     step= 1.00 grad=-9.4D-05 hess= 2.5D-05 energy=   -372.546251 mode=downhill
 new step= 1.86                   predicted energy=   -372.546270

          --------
          Step  19
          --------


                         Geometry "geometry" -> "geometry"
                         ---------------------------------

 Output coordinates in angstroms (scale by  1.889725989 to convert to a.u.)

  No.       Tag          Charge          X              Y              Z
 ---- ---------------- ---------- -------------- -------------- --------------
    1 B                    5.0000    -0.12856722    -1.77085214    -1.18993834
    2 C                    6.0000    -0.22784164    -1.04767938     0.20653724
    3 C                    6.0000     0.28753629    -1.81946962     1.43499118
    4 C                    6.0000    -1.53296969    -0.23446769     0.48286993
    5 C                    6.0000    -1.50182970     0.91014590    -0.55722927
    6 C                    6.0000    -0.02207556     1.34101224    -0.54339756
    7 O                    8.0000     0.27912545     2.13182535     0.65904925
    8 C                    6.0000     0.74657385     0.04201646    -0.31236792
    9 C                    6.0000     2.05544195    -0.11914606    -0.54978221
   10 H                    1.0000    -0.77283219    -1.39969745    -2.12628931
   11 H                    1.0000     0.65367624    -2.66417088    -1.33790944
   12 H                    1.0000    -0.45091341    -2.57412972     1.73681925
   13 H                    1.0000     1.22289951    -2.34341943     1.20830740
   14 H                    1.0000     0.46032804    -1.14011425     2.27480801
   15 H                    1.0000    -1.46496792     0.20473406     1.48440565
   16 H                    1.0000    -2.43518509    -0.84950930     0.41190670
   17 H                    1.0000    -2.16813155     1.74096030    -0.30581335
   18 H                    1.0000    -1.76727521     0.53183885    -1.54729265
   19 H                    1.0000     0.29027442     1.85561344    -1.46135128
   20 H                    1.0000    -0.30928930     2.93785304     0.62742353
   21 H                    1.0000     2.66282917     0.69848122    -0.92528409
   22 H                    1.0000     2.57209196    -1.04624048    -0.32612123

      Atomic Mass 
      ----------- 

      B                 11.009310
      C                 12.000000
      O                 15.994910
      H                  1.007825


 Effective nuclear repulsion energy (a.u.)     458.7450952834

            Nuclear Dipole moment (a.u.) 
            ----------------------------
        X                 Y               Z
 ---------------- ---------------- ----------------
    -2.0547268836    -2.6701590361     0.0114135194


  Step       Energy      Delta E   Gmax     Grms     Xrms     Xmax   Walltime
  ---- ---------------- -------- -------- -------- -------- -------- --------
@   19    -372.54626903 -8.7D-05  0.00192  0.00067  0.01200  0.03995   1912.3
                                                                    

 Line search: 
     step= 1.00 grad=-7.6D-05 hess= 2.2D-05 energy=   -372.546323 mode=downhill
 new step= 1.74                   predicted energy=   -372.546335

          --------
          Step  20
          --------


                         Geometry "geometry" -> "geometry"
                         ---------------------------------

 Output coordinates in angstroms (scale by  1.889725989 to convert to a.u.)

  No.       Tag          Charge          X              Y              Z
 ---- ---------------- ---------- -------------- -------------- --------------
    1 B                    5.0000    -0.11916457    -1.75997292    -1.18787532
    2 C                    6.0000    -0.23089159    -1.04637202     0.21186535
    3 C                    6.0000     0.28200417    -1.82042671     1.43814022
    4 C                    6.0000    -1.53384861    -0.23581124     0.48478334
    5 C                    6.0000    -1.50011644     0.90963043    -0.55569688
    6 C                    6.0000    -0.01851055     1.33957136    -0.54334724
    7 O                    8.0000     0.28270613     2.13170442     0.65945936
    8 C                    6.0000     0.74627004     0.03892427    -0.31515137
    9 C                    6.0000     2.05311100    -0.12448766    -0.55549186
   10 H                    1.0000    -0.76306690    -1.39188553    -2.12547882
   11 H                    1.0000     0.66812294    -2.64844196    -1.33618437
   12 H                    1.0000    -0.45801980    -2.57121228     1.74152835
   13 H                    1.0000     1.21473917    -2.34423120     1.20963013
   14 H                    1.0000     0.45780434    -1.13561464     2.27635853
   15 H                    1.0000    -1.46236726     0.20076754     1.48820424
[...]
     Transition Moments    X  0.25690   Y  0.30093   Z  0.06435
     Transition Moments   XX  1.44761  XY -0.48521  XZ -0.67385
     Transition Moments   YY -1.35045  YZ -1.00916  ZZ -0.30461
     Dipole Oscillator Strength                    0.0284481699
     Electric Quadrupole                           0.0000003696
     Magnetic Dipole                               0.0000001239
     Total Oscillator Strength                     0.0284486634

     Occ.   23  a   ---  Virt.   35  a   -0.05146 X
     Occ.   28  a   ---  Virt.   35  a   -0.18034 X
     Occ.   28  a   ---  Virt.   36  a   -0.06799 X
     Occ.   29  a   ---  Virt.   35  a    0.89113 X
     Occ.   30  a   ---  Virt.   35  a   -0.10731 X
     Occ.   31  a   ---  Virt.   35  a   -0.15206 X
     Occ.   31  a   ---  Virt.   36  a    0.13525 X
     Occ.   32  a   ---  Virt.   35  a   -0.07556 X
     Occ.   32  a   ---  Virt.   36  a   -0.26992 X
     Occ.   33  a   ---  Virt.   35  a    0.11253 X
     Occ.   34  a   ---  Virt.   35  a   -0.06924 X
  ----------------------------------------------------------------------------
  Root   9 singlet a              0.273982163 a.u.                7.4554 eV 
  ----------------------------------------------------------------------------
     Transition Moments    X  0.14350   Y -0.23903   Z -0.24049
     Transition Moments   XX  0.34013  XY  0.52515  XZ -0.27665
     Transition Moments   YY  0.61374  YZ  1.34348  ZZ -0.18729
     Dipole Oscillator Strength                    0.0247615993
     Electric Quadrupole                           0.0000002544
     Magnetic Dipole                               0.0000011006
     Total Oscillator Strength                     0.0247629544

     Occ.   25  a   ---  Virt.   35  a   -0.12094 X
     Occ.   28  a   ---  Virt.   35  a   -0.82304 X
     Occ.   29  a   ---  Virt.   35  a   -0.06801 X
     Occ.   29  a   ---  Virt.   36  a    0.11801 X
     Occ.   30  a   ---  Virt.   35  a    0.15939 X
     Occ.   31  a   ---  Virt.   35  a   -0.14001 X
     Occ.   31  a   ---  Virt.   36  a    0.06644 X
     Occ.   32  a   ---  Virt.   36  a    0.41727 X
     Occ.   33  a   ---  Virt.   36  a   -0.19051 X
     Occ.   34  a   ---  Virt.   36  a    0.12410 X
  ----------------------------------------------------------------------------
  Root  10 singlet a              0.284756337 a.u.                7.7486 eV 
  ----------------------------------------------------------------------------
     Transition Moments    X  0.77085   Y -0.07653   Z -0.24312
     Transition Moments   XX  3.71197  XY -0.47924  XZ -1.44898
     Transition Moments   YY -2.26094  YZ  0.13421  ZZ -0.18454
     Dipole Oscillator Strength                    0.1251371516
     Electric Quadrupole                           0.0000014192
     Magnetic Dipole                               0.0000005168
     Total Oscillator Strength                     0.1251390876

     Occ.   27  a   ---  Virt.   35  a   -0.09388 X
     Occ.   28  a   ---  Virt.   35  a    0.49618 X
     Occ.   28  a   ---  Virt.   36  a    0.06480 X
     Occ.   29  a   ---  Virt.   35  a    0.22440 X
     Occ.   29  a   ---  Virt.   36  a    0.15735 X
     Occ.   30  a   ---  Virt.   35  a    0.17634 X
     Occ.   30  a   ---  Virt.   36  a    0.05288 X
     Occ.   31  a   ---  Virt.   36  a    0.08695 X
     Occ.   32  a   ---  Virt.   35  a   -0.16154 X
     Occ.   32  a   ---  Virt.   36  a    0.62353 X
     Occ.   33  a   ---  Virt.   35  a    0.18062 X
     Occ.   33  a   ---  Virt.   36  a   -0.32209 X
     Occ.   33  a   ---  Virt.   37  a   -0.05029 X
     Occ.   34  a   ---  Virt.   35  a   -0.12045 X
     Occ.   34  a   ---  Virt.   36  a    0.18444 X
     Occ.   34  a   ---  Virt.   37  a    0.06287 X
  ----------------------------------------------------------------------------
  Root  11 singlet a              0.294109266 a.u.                8.0031 eV 
  ----------------------------------------------------------------------------
     Transition Moments    X  0.15148   Y  0.14944   Z  0.11550
     Transition Moments   XX  1.32436  XY -0.10459  XZ -0.23849
     Transition Moments   YY -1.31253  YZ -0.87180  ZZ -0.32530
     Dipole Oscillator Strength                    0.0114940166
     Electric Quadrupole                           0.0000003526
     Magnetic Dipole                               0.0000011009
     Total Oscillator Strength                     0.0114954701

     Occ.   25  a   ---  Virt.   35  a    0.06178 X
     Occ.   26  a   ---  Virt.   35  a    0.08889 X
     Occ.   28  a   ---  Virt.   35  a   -0.06323 X
     Occ.   29  a   ---  Virt.   35  a    0.16499 X
     Occ.   30  a   ---  Virt.   35  a    0.05214 X
     Occ.   31  a   ---  Virt.   35  a    0.08119 X
     Occ.   31  a   ---  Virt.   36  a   -0.95833 X
     Occ.   32  a   ---  Virt.   36  a    0.07118 X
     Occ.   33  a   ---  Virt.   37  a   -0.05633 X
     Occ.   34  a   ---  Virt.   37  a   -0.08925 X
  ----------------------------------------------------------------------------
  Root  12 singlet a              0.298359051 a.u.                8.1188 eV 
  ----------------------------------------------------------------------------
     Transition Moments    X  0.11375   Y  0.06226   Z -0.02890
     Transition Moments   XX  0.22461  XY -0.40266  XZ -0.14434
     Transition Moments   YY -0.35544  YZ -0.32775  ZZ  0.12749
     Dipole Oscillator Strength                    0.0035109204
     Electric Quadrupole                           0.0000000547
     Magnetic Dipole                               0.0000005204
     Total Oscillator Strength                     0.0035114956

     Occ.   25  a   ---  Virt.   35  a    0.08367 X
     Occ.   26  a   ---  Virt.   35  a    0.20464 X
     Occ.   27  a   ---  Virt.   35  a    0.85539 X
     Occ.   29  a   ---  Virt.   35  a    0.05727 X
     Occ.   30  a   ---  Virt.   36  a   -0.07388 X
     Occ.   32  a   ---  Virt.   36  a    0.05036 X
     Occ.   33  a   ---  Virt.   37  a    0.18622 X
     Occ.   34  a   ---  Virt.   37  a    0.38407 X
     Occ.   34  a   ---  Virt.   38  a    0.07784 X
     Occ.   34  a   ---  Virt.   41  a    0.05082 X
  ----------------------------------------------------------------------------
  Root  13 singlet a              0.299006734 a.u.                8.1364 eV 
  ----------------------------------------------------------------------------
     Transition Moments    X -0.14880   Y -0.03097   Z  0.01406
     Transition Moments   XX -0.12806  XY -0.06517  XZ  0.05435
     Transition Moments   YY -0.17983  YZ -0.05520  ZZ  0.22180
     Dipole Oscillator Strength                    0.0046439489
     Electric Quadrupole                           0.0000000083
     Magnetic Dipole                               0.0000016976
     Total Oscillator Strength                     0.0046456547

     Occ.   26  a   ---  Virt.   35  a   -0.10300 X
     Occ.   27  a   ---  Virt.   35  a   -0.42728 X
     Occ.   31  a   ---  Virt.   36  a   -0.11220 X
     Occ.   32  a   ---  Virt.   36  a   -0.06143 X
     Occ.   33  a   ---  Virt.   37  a    0.40459 X
     Occ.   33  a   ---  Virt.   38  a    0.08525 X
     Occ.   33  a   ---  Virt.   41  a    0.06272 X
     Occ.   34  a   ---  Virt.   36  a   -0.07130 X
     Occ.   34  a   ---  Virt.   37  a    0.75162 X
     Occ.   34  a   ---  Virt.   38  a    0.13444 X
     Occ.   34  a   ---  Virt.   41  a    0.09254 X
  ----------------------------------------------------------------------------
  Root  14 singlet a              0.305208352 a.u.                8.3051 eV 
  ----------------------------------------------------------------------------
     Transition Moments    X -0.02239   Y -0.16471   Z -0.02428
     Transition Moments   XX  0.46692  XY  0.42250  XZ  0.33144
     Transition Moments   YY -0.32516  YZ  0.59345  ZZ -0.10295
     Dipole Oscillator Strength                    0.0057416954
     Electric Quadrupole                           0.0000001222
     Magnetic Dipole                               0.0000009910
     Total Oscillator Strength                     0.0057428086

     Occ.   23  a   ---  Virt.   35  a    0.05280 X
     Occ.   24  a   ---  Virt.   36  a    0.05078 X
     Occ.   25  a   ---  Virt.   35  a   -0.21085 X
     Occ.   26  a   ---  Virt.   35  a    0.39698 X
     Occ.   26  a   ---  Virt.   36  a   -0.05195 X
     Occ.   27  a   ---  Virt.   35  a   -0.13336 X
     Occ.   29  a   ---  Virt.   36  a    0.08878 X
     Occ.   30  a   ---  Virt.   35  a   -0.05950 X
     Occ.   30  a   ---  Virt.   36  a   -0.85565 X
     Occ.   33  a   ---  Virt.   37  a   -0.06039 X
  ----------------------------------------------------------------------------
  Root  15 singlet a              0.307119996 a.u.                8.3572 eV 
  ----------------------------------------------------------------------------
     Transition Moments    X -0.29463   Y -0.07955   Z -0.11293
     Transition Moments   XX -0.68763  XY -0.18794  XZ  0.57381
     Transition Moments   YY  0.59196  YZ  0.48565  ZZ -0.03852
     Dipole Oscillator Strength                    0.0216797520
     Electric Quadrupole                           0.0000001558
     Magnetic Dipole                               0.0000009381
     Total Oscillator Strength                     0.0216808460

     Occ.   22  a   ---  Virt.   35  a    0.05264 X
     Occ.   25  a   ---  Virt.   35  a    0.13504 X
     Occ.   26  a   ---  Virt.   35  a    0.86362 X
     Occ.   26  a   ---  Virt.   36  a   -0.05269 X
     Occ.   27  a   ---  Virt.   35  a   -0.20026 X
     Occ.   29  a   ---  Virt.   36  a   -0.07418 X
     Occ.   30  a   ---  Virt.   36  a    0.39575 X
     Occ.   31  a   ---  Virt.   36  a    0.07314 X
     Occ.   33  a   ---  Virt.   35  a   -0.05280 X
     Occ.   33  a   ---  Virt.   37  a    0.05866 X
  ----------------------------------------------------------------------------
  Root  16 singlet a              0.315609748 a.u.                8.5882 eV 
  ----------------------------------------------------------------------------
     Transition Moments    X -0.26161   Y  0.10498   Z -0.03247
     Transition Moments   XX -0.83706  XY  0.08061  XZ  0.28513
     Transition Moments   YY  1.02393  YZ  0.47648  ZZ -0.28354
     Dipole Oscillator Strength                    0.0169410007
     Electric Quadrupole                           0.0000002056
     Magnetic Dipole                               0.0000004189
     Total Oscillator Strength                     0.0169416252

     Occ.   25  a   ---  Virt.   35  a   -0.93510 X
     Occ.   26  a   ---  Virt.   35  a    0.06566 X
     Occ.   26  a   ---  Virt.   36  a    0.06338 X
     Occ.   27  a   ---  Virt.   35  a    0.09882 X
     Occ.   28  a   ---  Virt.   35  a    0.11493 X
     Occ.   28  a   ---  Virt.   36  a   -0.07749 X
     Occ.   29  a   ---  Virt.   36  a    0.06881 X
     Occ.   30  a   ---  Virt.   36  a    0.24042 X
     Occ.   31  a   ---  Virt.   36  a   -0.08801 X
     Occ.   33  a   ---  Virt.   37  a    0.06296 X
  ----------------------------------------------------------------------------
  Root  17 singlet a              0.323655466 a.u.                8.8071 eV 
  ----------------------------------------------------------------------------
     Transition Moments    X  0.15032   Y -0.29995   Z -0.10384
     Transition Moments   XX  0.99165  XY  0.19412  XZ -0.01785
     Transition Moments   YY -0.71327  YZ  0.04147  ZZ -0.04884
     Dipole Oscillator Strength                    0.0266151096
     Electric Quadrupole                           0.0000001405
     Magnetic Dipole                               0.0000015996
     Total Oscillator Strength                     0.0266168497

     Occ.   23  a   ---  Virt.   35  a    0.07149 X
     Occ.   24  a   ---  Virt.   35  a    0.14236 X
     Occ.   25  a   ---  Virt.   35  a   -0.13071 X
     Occ.   28  a   ---  Virt.   36  a    0.17065 X
     Occ.   29  a   ---  Virt.   36  a   -0.88771 X
     Occ.   30  a   ---  Virt.   35  a    0.05019 X
     Occ.   32  a   ---  Virt.   35  a   -0.05569 X
     Occ.   32  a   ---  Virt.   36  a    0.07965 X
     Occ.   33  a   ---  Virt.   36  a   -0.06272 X
     Occ.   33  a   ---  Virt.   37  a   -0.27417 X
     Occ.   33  a   ---  Virt.   38  a    0.05586 X
     Occ.   34  a   ---  Virt.   37  a    0.14552 X
  ----------------------------------------------------------------------------
  Root  18 singlet a              0.328613946 a.u.                8.9420 eV 
  ----------------------------------------------------------------------------
     Transition Moments    X  0.20533   Y  0.20241   Z  0.01985
     Transition Moments   XX  0.70028  XY -0.13477  XZ -0.70570
     Transition Moments   YY -0.25973  YZ  0.99504  ZZ  0.33071
     Dipole Oscillator Strength                    0.0182981072
     Electric Quadrupole                           0.0000003289
     Magnetic Dipole                               0.0000003490
     Total Oscillator Strength                     0.0182987851

     Occ.   24  a   ---  Virt.   35  a    0.07027 X
     Occ.   25  a   ---  Virt.   36  a    0.05477 X
     Occ.   28  a   ---  Virt.   36  a    0.36634 X
     Occ.   29  a   ---  Virt.   36  a   -0.20698 X
     Occ.   30  a   ---  Virt.   36  a   -0.07459 X
     Occ.   33  a   ---  Virt.   37  a    0.75759 X
     Occ.   33  a   ---  Virt.   38  a   -0.10197 X
     Occ.   34  a   ---  Virt.   37  a   -0.42528 X
     Occ.   34  a   ---  Virt.   38  a    0.15430 X
  ----------------------------------------------------------------------------
  Root  19 singlet a              0.333371114 a.u.                9.0715 eV 
  ----------------------------------------------------------------------------
     Transition Moments    X -0.01634   Y  0.31677   Z  0.15244
     Transition Moments   XX -0.04900  XY  0.07242  XZ  0.08172
     Transition Moments   YY  0.22515  YZ -0.73137  ZZ -0.84067
     Dipole Oscillator Strength                    0.0275245890
     Electric Quadrupole                           0.0000001683
     Magnetic Dipole                               0.0000028590
     Total Oscillator Strength                     0.0275276163

     Occ.   23  a   ---  Virt.   35  a    0.10662 X
     Occ.   24  a   ---  Virt.   35  a   -0.58212 X
     Occ.   28  a   ---  Virt.   36  a    0.73097 X
     Occ.   29  a   ---  Virt.   35  a    0.06261 X
     Occ.   29  a   ---  Virt.   36  a    0.11309 X
     Occ.   30  a   ---  Virt.   36  a    0.05504 X
     Occ.   32  a   ---  Virt.   36  a   -0.07865 X
     Occ.   33  a   ---  Virt.   37  a   -0.18617 X
     Occ.   33  a   ---  Virt.   39  a    0.05722 X
     Occ.   34  a   ---  Virt.   37  a    0.12572 X
     Occ.   34  a   ---  Virt.   41  a   -0.05010 X
  ----------------------------------------------------------------------------
  Root  20 singlet a              0.336150623 a.u.                9.1471 eV 
  ----------------------------------------------------------------------------
     Transition Moments    X  0.11769   Y -0.37562   Z -0.10796
     Transition Moments   XX  1.05273  XY  0.10916  XZ  0.13696
     Transition Moments   YY -0.28470  YZ  0.55719  ZZ  0.15863
     Dipole Oscillator Strength                    0.0373352725
     Electric Quadrupole                           0.0000001629
     Magnetic Dipole                               0.0000000471
     Total Oscillator Strength                     0.0373354826

     Occ.   20  a   ---  Virt.   35  a   -0.05488 X
     Occ.   22  a   ---  Virt.   35  a   -0.08094 X
     Occ.   23  a   ---  Virt.   35  a    0.31749 X
     Occ.   24  a   ---  Virt.   35  a   -0.70074 X
     Occ.   26  a   ---  Virt.   35  a   -0.07964 X
     Occ.   26  a   ---  Virt.   36  a   -0.12509 X
     Occ.   28  a   ---  Virt.   36  a   -0.49706 X
     Occ.   29  a   ---  Virt.   36  a   -0.22274 X
     Occ.   32  a   ---  Virt.   36  a    0.07063 X
     Occ.   33  a   ---  Virt.   36  a   -0.06837 X
     Occ.   33  a   ---  Virt.   37  a    0.13396 X
     Occ.   33  a   ---  Virt.   40  a   -0.05623 X
     Occ.   34  a   ---  Virt.   37  a   -0.11182 X
     Occ.   34  a   ---  Virt.   38  a    0.08122 X
     Occ.   34  a   ---  Virt.   41  a    0.05794 X

              Target root =      1
          Target symmetry = none
      Ground state energy =   -372.546598192669
        Excitation energy =      0.194167393418
     Excited state energy =   -372.352430799251

  stored tddft:energy   -372.35243079925112     

 Task  times  cpu:     2872.2s     wall:     2879.4s


                                NWChem Input Module
                                -------------------


 Summary of allocated global arrays
-----------------------------------
  No active global arrays



                         GA Statistics for process    0
                         ------------------------------

       create   destroy   get      put      acc     scatter   gather  read&inc
calls: 2502     2502     4.51e+07 2.43e+06 5.25e+07 1440        0     4204     
number of processes/call 1.00e+00 1.00e+00 1.00e+00 0.00e+00 0.00e+00
bytes total:             2.82e+10 4.93e+09 2.49e+10 9.16e+04 0.00e+00 3.36e+04
bytes remote:            0.00e+00 0.00e+00 0.00e+00 0.00e+00 0.00e+00 0.00e+00
Max memory consumed for GA by this process: 503533552 bytes

MA_summarize_allocated_blocks: starting scan ...
MA_summarize_allocated_blocks: scan completed: 0 heap blocks, 0 stack blocks
MA usage statistics:

	allocation statistics:
					      heap	     stack
					      ----	     -----
	current number of blocks	         0	         0
	maximum number of blocks	        20	        51
	current total bytes		         0	         0
	maximum total bytes		  29619968	  18535112
	maximum total K-bytes		     29620	     18536
	maximum total M-bytes		        30	        19


                                     CITATION
                                     --------
                Please cite the following reference when publishing
                           results obtained with NWChem:

                 M. Valiev, E.J. Bylaska, N. Govind, K. Kowalski,
              T.P. Straatsma, H.J.J. van Dam, D. Wang, J. Nieplocha,
                        E. Apra, T.L. Windus, W.A. de Jong
                 "NWChem: a comprehensive and scalable open-source
                  solution for large scale molecular simulations"
                      Comput. Phys. Commun. 181, 1477 (2010)
                           doi:10.1016/j.cpc.2010.04.018

                                      AUTHORS
                                      -------
          E. Apra, E. J. Bylaska, W. A. de Jong, N. Govind, K. Kowalski,
       T. P. Straatsma, M. Valiev, H. J. J. van Dam, D. Wang, T. L. Windus,
        J. Hammond, J. Autschbach, K. Bhaskaran-Nair, J. Brabec, K. Lopata,
    S. A. Fischer, S. Krishnamoorthy, M. Jacquelin, W. Ma, M. Klemm, O. Villa,
      Y. Chen, V. Anisimov, F. Aquino, S. Hirata, M. T. Hackler, V. Konjkov,
            D. Mejia-Rodriguez, T. Risthaus, M. Malagoli, A. Marenich,
   A. Otero-de-la-Roza, J. Mullin, P. Nichols, R. Peverati, J. Pittner, Y. Zhao,
        P.-D. Fan, A. Fonari, M. J. Williamson, R. J. Harrison, J. R. Rehr,
      M. Dupuis, D. Silverstein, D. M. A. Smith, J. Nieplocha, V. Tipparaju,
    M. Krishnan, B. E. Van Kuiken, A. Vazquez-Mayagoitia, L. Jensen, M. Swart,
      Q. Wu, T. Van Voorhis, A. A. Auer, M. Nooijen, L. D. Crosby, E. Brown,
      G. Cisneros, G. I. Fann, H. Fruchtl, J. Garza, K. Hirao, R. A. Kendall,
      J. A. Nichols, K. Tsemekhman, K. Wolinski, J. Anchell, D. E. Bernholdt,
      P. Borowski, T. Clark, D. Clerc, H. Dachsel, M. J. O. Deegan, K. Dyall,
    D. Elwood, E. Glendening, M. Gutowski, A. C. Hess, J. Jaffe, B. G. Johnson,
     J. Ju, R. Kobayashi, R. Kutteh, Z. Lin, R. Littlefield, X. Long, B. Meng,
      T. Nakajima, S. Niu, L. Pollack, M. Rosing, K. Glaesemann, G. Sandrone,
      M. Stave, H. Taylor, G. Thomas, J. H. van Lenthe, A. T. Wong, Z. Zhang.

 Total times  cpu:     2872.3s     wall:     2880.2s
