----- GAMESS execution script 'rungms' -----
This job is running on host holy7c02506.rc.fas.harvard.edu
under operating system Linux at Thu Dec 31 22:57:35 EST 2020
Available scratch disk space (Kbyte units) at beginning of the job is
Filesystem                     1K-blocks   Used Available Use% Mounted on
/dev/mapper/vg_root-lv_scratch  71952052 815892  71136160   2% /scratch
GAMESS temporary binary files will be written to /scratch
GAMESS supplementary output files will be written to /net/shakfs1/shakfs1/users/saxelrod/jobs/gamess_dat
Copying input file 20201231225730260111169_energy.inp to your run's scratch directory...
 
Assuming a single but multicore node.
 

 Distributed Data Interface kickoff program.
 Initiating 15 compute processes on 1 nodes to run the following command:
 /n/home11/saxelrod/apps/gamess/gamess.03.x 20201231225730260111169_energy 

          ******************************************************
          *         GAMESS VERSION = 30 SEP 2018 (R3)         *
          *             FROM IOWA STATE UNIVERSITY             *
          * M.W.SCHMIDT, K.K.BALDRIDGE, J.A.BOATZ, S.T.ELBERT, *
          *   M.S.GORDON, J.H.JENSEN, S.KOSEKI, N.MATSUNAGA,   *
          *          K.A.NGUYEN, S.J.SU, T.L.WINDUS,           *
          *       TOGETHER WITH M.DUPUIS, J.A.MONTGOMERY       *
          *         J.COMPUT.CHEM.  14, 1347-1363(1993)        *
          **************** 64 BIT LINUX VERSION ****************

  SINCE 1993, STUDENTS AND POSTDOCS WORKING AT IOWA STATE UNIVERSITY
  AND ALSO IN THEIR VARIOUS JOBS AFTER LEAVING ISU HAVE MADE IMPORTANT
  CONTRIBUTIONS TO THE CODE:
     IVANA ADAMOVIC, CHRISTINE AIKENS, YURI ALEXEEV, POOJA ARORA,
     ANDREY ASADCHEV, ROB BELL, PRADIPTA BANDYOPADHYAY, JONATHAN BENTZ,
     BRETT BODE, KURT BRORSEN, CALEB CARLIN, GALINA CHABAN, WEI CHEN,
     CHEOL HO CHOI, PAUL DAY, ALBERT DEFUSCO, NUWAN DESILVA, TIM DUDLEY,
     DMITRI FEDOROV, ALEX FINDLATER, GRAHAM FLETCHER, MARK FREITAG,
     KURT GLAESEMANN, ANASTASIA GUNINA,
     DAN KEMP, GRANT MERRILL, NORIYUKI MINEZAWA, JONATHAN MULLIN,
     TAKESHI NAGATA, SEAN NEDD, HEATHER NETZLOFF, BOSILJKA NJEGIC, RYAN OLSON,
     MIKE PAK, BUU PHAM,
     SPENCER PRUITT, LUKE ROSKOP, JIM SHOEMAKER, LYUDMILA SLIPCHENKO,
     TONY SMITH, SAROM SOK LEANG, JIE SONG, TETSUYA TAKETSUGU, SIMON WEBB,
     PENG XU, SOOHAENG YOO, FEDERICO ZAHARIEV

  ADDITIONAL CODE HAS BEEN PROVIDED BY COLLABORATORS IN OTHER GROUPS:
     IOWA STATE UNIVERSITY:
          JOE IVANIC, AARON WEST, LAIMUTIS BYTAUTAS, KLAUS RUEDENBERG
     UNIVERSITY OF TOKYO: KIMIHIKO HIRAO, TAKAHITO NAKAJIMA,
          TAKAO TSUNEDA, MUNEAKI KAMIYA, SUSUMU YANAGISAWA,
          KIYOSHI YAGI, MAHITO CHIBA, SEIKEN TOKURA, NAOAKI KAWAKAMI
     UNIVERSITY OF AARHUS: FRANK JENSEN
     UNIVERSITY OF IOWA: VISVALDAS KAIRYS, HUI LI
     NATIONAL INST. OF STANDARDS AND TECHNOLOGY: WALT STEVENS, DAVID GARMER
     UNIVERSITY OF PISA: BENEDETTA MENNUCCI, JACOPO TOMASI
     UNIVERSITY OF MEMPHIS: HENRY KURTZ, PRAKASHAN KORAMBATH
     UNIVERSITY OF ALBERTA: TOBY ZENG, MARIUSZ KLOBUKOWSKI
     UNIVERSITY OF NEW ENGLAND: MARK SPACKMAN
     MIE UNIVERSITY: HIROAKI UMEDA
     NAT. INST. OF ADVANCED INDUSTRIAL SCIENCE AND TECHNOLOGY: KAZUO KITAURA
     MICHIGAN STATE UNIVERSITY:
          KAROL KOWALSKI, MARTA WLOCH, JEFFREY GOUR, JESSE LUTZ,
          WEI LI, JUN SHEN, J. EMILIANO DEUSTUA, PIOTR PIECUCH
     UNIVERSITY OF MINNESOTA:
          YINAN SHU
     UNIVERSITY OF SILESIA: MONIKA MUSIAL, STANISLAW KUCHARSKI
     FACULTES UNIVERSITAIRES NOTRE-DAME DE LA PAIX:
          OLIVIER QUINET, BENOIT CHAMPAGNE
     UNIVERSITY OF CALIFORNIA - SANTA BARBARA: BERNARD KIRTMAN
     INSTITUTE FOR MOLECULAR SCIENCE:
          KAZUYA ISHIMURA, MICHIO KATOUDA, AND SHIGERU NAGASE
     UNIVERSITY OF NOTRE DAME: ANNA POMOGAEVA, DAN CHIPMAN
     KYUSHU UNIVERSITY:
          HARUYUKI NAKANO,
          FENG LONG GU, JACEK KORCHOWIEC, MARCIN MAKOWSKI, AND YURIKO AOKI,
          HIROTOSHI MORI AND EISAKU MIYOSHI
     PENNSYLVANIA STATE UNIVERSITY:
          TZVETELIN IORDANOV, CHET SWALINA, JONATHAN SKONE,
          SHARON HAMMES-SCHIFFER
     WASEDA UNIVERSITY:
          MASATO KOBAYASHI, TOMOKO AKAMA, TSUGUKI TOUMA,
          TAKESHI YOSHIKAWA, YASUHIRO IKABATA, JUNJI SEINO,
          YUYA NAKAJIMA, HIROMI NAKAI
     NANJING UNIVERSITY: SHUHUA LI
     UNIVERSITY OF NEBRASKA:
          PEIFENG SU, DEJUN SI, NANDUN THELLAMUREGE, YALI WANG, HUI LI
     UNIVERSITY OF ZURICH: ROBERTO PEVERATI, KIM BALDRIDGE
     N. COPERNICUS UNIVERSITY AND JACKSON STATE UNIVERSITY:
          MARIA BARYSZ
     UNIVERSITY OF COPENHAGEN: Jimmy Kromann, CASPER STEINMANN
     TOKYO INSTITUTE OF TECHNOLOGY: HIROYA NAKATA
     NAGOYA UNIVERSITY: YOSHIO NISHIMOTO, STEPHAN IRLE
     MOSCOW STATE UNIVERSITY: VLADIMIR MIRONOV


 PARALLEL VERSION RUNNING ON       15 PROCESSORS IN        1 NODES.

 EXECUTION OF GAMESS BEGUN Thu Dec 31 22:57:36 2020

            ECHO OF THE FIRST FEW INPUT CARDS -
 INPUT CARD> $basis gbasis=n31 ngauss=6 $end                                                
 INPUT CARD> $basis ndfunc=1 npfunc=0 $end                                                  
 INPUT CARD> $basis diffsp=.false. diffs=.false. $end                                       
 INPUT CARD> $contrl scftyp=uhf dfttyp=half tddft=spnflp $end                               
 INPUT CARD> $contrl runtyp=energy mult=3 icharg=0 units=angs $end                          
 INPUT CARD> $contrl maxit=200 nprint=9 $end                                                
 INPUT CARD> $system mwords=187 $end                                                        
 INPUT CARD> $tddft nstate=3  $end                                                          
 INPUT CARD> $guess guess=huckel $end                                                       
 INPUT CARD>                                                                                
 INPUT CARD>                                                                                
 INPUT CARD>                                                                                
 INPUT CARD>                                                                                
 INPUT CARD>                                                                                
 INPUT CARD> $scf soscf=.true. $end                                                         
 INPUT CARD>                                                                                
 INPUT CARD> $data                                                                          
 INPUT CARD>Comment                                                                         
 INPUT CARD>c1                                                                              
 INPUT CARD>C 6 5.25355 -1.15311 1.15647                                                    
 INPUT CARD>C 6 3.72575 -1.25626 1.29863                                                    
 INPUT CARD>C 6 3.25589 -0.89367 2.72363                                                    
 INPUT CARD>C 6 2.98297 -0.39830 0.28992                                                    
 INPUT CARD>C 6 1.91044 -0.92270 -0.45130                                                   
 INPUT CARD>C 6 1.15423 -0.11161 -1.30390                                                   
 INPUT CARD>N 7 0.07830 -0.78190 -2.06047                                                   
 INPUT CARD>O 8 -0.54766 -1.67309 -1.47712                                                  
 INPUT CARD>O 8 -0.09654 -0.41958 -3.22354                                                  
 INPUT CARD>C 6 1.42025 1.27539 -1.46368                                                    
 INPUT CARD>N 7 0.65245 2.27497 -2.11807                                                    
 INPUT CARD>N 7 -0.59475 2.33480 -2.04906                                                   
 INPUT CARD>C 6 -1.41997 1.47964 -1.29106                                                   
 INPUT CARD>C 6 -1.28858 1.23678 0.10596                                                    
 INPUT CARD>N 7 -0.20752 1.86485 0.89223                                                    
 INPUT CARD>O 8 0.09793 3.02340 0.60829                                                     
 INPUT CARD>O 8 0.29771 1.18559 1.79201                                                     
 INPUT CARD>C 6 -2.15886 0.39167 0.79985                                                    
 INPUT CARD>C 6 -3.25181 -0.21974 0.15930                                                   
 INPUT CARD>C 6 -4.14480 -1.20923 0.88774                                                   
 INPUT CARD>C 6 -3.40244 -2.55198 1.05246                                                   
 INPUT CARD>C 6 -4.65430 -0.66917 2.23443                                                   
 INPUT CARD>C 6 -3.44441 0.06424 -1.20309                                                   
 INPUT CARD>C 6 -2.55425 0.88393 -1.90020                                                   
 INPUT CARD>N 7 -2.79504 1.08394 -3.34694                                                   
 INPUT CARD>O 8 -1.88056 1.57487 -4.01175                                                   
 INPUT CARD>O 8 -3.90428 0.76651 -3.78230                                                   
 INPUT CARD>C 6 2.55919 1.75502 -0.76830                                                    
 INPUT CARD>N 7 2.99482 3.17425 -0.90702                                                    
 INPUT CARD>O 8 3.16708 3.59442 -2.04507                                                    
 INPUT CARD>O 8 3.21035 3.78050 0.14183                                                     
  187000000 WORDS OF MEMORY AVAILABLE

     BASIS OPTIONS
     -------------
     GBASIS=N31          IGAUSS=       6      POLAR=POPN31  
     NDFUNC=       1     NFFUNC=       0     DIFFSP=       F
     NPFUNC=       0      DIFFS=       F     BASNAM=        


     RUN TITLE
     ---------
 Comment                                                                         

 THE POINT GROUP OF THE MOLECULE IS C1      
 THE ORDER OF THE PRINCIPAL AXIS IS     0

 ATOM      ATOMIC                      COORDINATES (BOHR)
           CHARGE         X                   Y                   Z
 C           6.0     9.9277699628       -2.1790619337        2.1854114130
 C           6.0     7.0406465988       -2.3739871693        2.4540548594
 C           6.0     6.1527399462       -1.6887914234        5.1469143919
 C           6.0     5.6369959296       -0.7526778609        0.5478693584
 C           6.0     3.6102081160       -1.7436501689       -0.8528333383
 C           6.0     2.1811784268       -0.2109123175       -2.4640137154
 N           7.0     0.1479655448       -1.4775767498       -3.8937237059
 O           8.0    -1.0349273344       -3.1616816528       -2.7913520510
 O           8.0    -0.1824341469       -0.7928912299       -6.0916073105
 C           6.0     2.6838833341        2.4101376275       -2.7659541337
 N           7.0     1.2329517207        4.2990699303       -4.0025719228
 N           7.0    -1.1239145312        4.4121322361       -3.8721619324
 C           6.0    -2.6833542108        2.7961141605       -2.4397496337
 C           6.0    -2.4350631133        2.3371753071        0.2002353657
 N           7.0    -0.3921559370        3.5240555082        1.6860702180
 O           8.0     0.1850608660        5.7133975513        1.1495014211
 O           8.0     0.5625903238        2.2404402338        3.3864078673
 C           6.0    -4.0796538459        0.7401489776        1.5114973313
 C           6.0    -6.1450298641       -0.4152483885        0.3010333498
 C           6.0    -7.8325362739       -2.2851133561        1.6775853483
 C           6.0    -6.4296792897       -4.8225429261        1.9888610130
 C           6.0    -8.7953516647       -1.2645479392        4.2224604387
 C           6.0    -6.5089910894        0.1213959975       -2.2735104386
 C           6.0    -4.8268326041        1.6703854923       -3.5908573219
 N           7.0    -5.2818597247        2.0483495871       -6.3247994973
 O           8.0    -3.5537431035        2.9760727663       -7.5811082312
 O           8.0    -7.3780193793        1.4484938668       -7.1475106034
 C           6.0     4.8361678505        3.3165069030       -1.4518764764
 N           7.0     5.6593891825        5.9984627165       -1.7140192654
 O           8.0     5.9849133812        6.7924688848       -3.8646219257
 O           8.0     6.0666818247        7.1441090966        0.2680198368
 C           6.0     6.2271384583        1.8197116399        0.2142571325
 H           1.0    10.6166128798       -0.2498784674        2.6338055954
 H           1.0    10.5557826003       -2.6534398484        0.2443415702
 H           1.0    10.8716314019       -3.4944812965        3.5146257755
 H           1.0     6.4860687131       -4.3652859289        2.0802670591
 H           1.0     7.0580320778       -2.9437773492        6.5602782527
 H           1.0     6.6560873603        0.2909989048        5.6196482450
 H           1.0     4.0752318870       -1.8630997486        5.3312193675
 H           1.0     3.0711826752       -3.7425267296       -0.6864051705
 H           1.0    -3.6799956967        0.4134153543        3.5225437274
 H           1.0    -9.4965911842       -2.6172704930        0.4400604908
 H           1.0    -5.7662909817       -5.5567581642        0.1442049901
 H           1.0    -4.7451964415       -4.5956057323        3.2185624050
 H           1.0    -7.6806023045       -6.2565614919        2.8669977823
 H           1.0   -10.1302352051       -2.6234687942        5.0942099341
 H           1.0    -9.7883270822        0.5654249128        3.9932933682
 H           1.0    -7.2268790948       -0.9812591164        5.5860111224
 H           1.0    -8.0934696383       -0.6895043211       -3.3430197586
 H           1.0     7.7645250356        2.7229439702        1.2777004321

          INTERNUCLEAR DISTANCES (ANGS.)
          ------------------------------

                1 C          2 C          3 C          4 C          5 C     

   1 C       0.0000000    1.5378629 *  2.5522431 *  2.5448341 *  3.7167725  
   2 C       1.5378629 *  0.0000000    1.5436531 *  1.5183258 *  2.5433969 *
   3 C       2.5522431 *  1.5436531 *  0.0000000    2.4985638 *  3.4483705  
   4 C       2.5448341 *  1.5183258 *  2.4985638 *  0.0000000    1.4052484 *
   5 C       3.7167725    2.5433969 *  3.4483705    1.4052484 *  0.0000000  
   6 C       4.8931143    3.8335494    4.6097278    2.4426918 *  1.3988021 *
   7 N       6.1048925    4.9812109    5.7443175    3.7561403    2.4425376 *
   8 O       6.3921994    5.1127848    5.7202088    4.1488394    2.7672455 *
   9 O       6.9531300    5.9799629    6.8434187    4.6720698    3.4592504  
  10 C       5.2399415    4.3994248    5.0604309    2.8841715 *  2.4691697 *
  11 N       6.6063958    5.7955670    6.3450956    4.2867367    3.8191301  
  12 N       7.5261910    6.5398364    6.9302970    5.0735336    4.4090952  
  13 C       7.5800821    6.3773096    6.6040899    5.0410353    4.1914276  
  14 C       7.0437639    5.7254882    5.6606732    4.5774957    3.8996951  
  15 N       6.2450933    5.0375690    4.7915204    3.9577584    3.7498350  
  16 O       6.6576388    5.6527106    5.4580960    4.4869640    4.4698578  
  17 O       5.5166819    4.2376306    3.7339077    3.4605784    3.4753740  
  18 C       7.5800623    6.1313204    5.8883398    5.2270926    4.4555749  
  19 C       8.6143297    7.1455434    7.0270996    6.2387039    5.2455515  
  20 C       9.4023586    7.8814085    7.6315321    7.1986180    6.2081446  
  21 C       8.7689120    7.2491781    7.0623055    6.7818335    5.7569559  
  22 C       9.9780603    8.4525519    7.9284817    7.8855807    7.0974104  
  23 C       9.0941725    7.7080165    7.8250075    6.6146985    5.4966951  
  24 C       8.6287024    7.3655500    7.6352729    6.0911037    5.0295805  
  25 N       9.4902526    8.3413763    8.7963922    6.9863571    5.8781695  
  26 O       9.2221417    8.2247276    8.8228200    6.7861395    5.7694316  
  27 O      10.5802760    9.3874813    9.8158727    8.0854172    6.9108581  
  28 C       4.4069871    3.8341712    4.4378514    2.4364331 *  2.7733644 *
  29 N       5.2996129    5.0028561    5.4587315    3.7677472    4.2624594  
  30 O       6.0944447    5.9178998    6.5491479    4.6290267    4.9521329  
  31 O       5.4355007    5.1935320    5.3400028    4.1876010    4.9154511  
  32 C       3.0660474    2.5524561 *  3.2034345    1.4077262 *  2.4067127 *
  33 H       1.1096723 *  2.2030357 *  2.8157177 *  2.8693180 *  4.2161087  
  34 H       1.1083941 *  2.2021092 *  3.5241994    2.7951124 *  3.7520315  
  35 H       1.1084986 *  2.1854932 *  2.8097677 *  3.4989998    4.5787863  
  36 H       2.1583646 *  1.1115928 *  2.1611599 *  2.1246387 *  2.5787077 *
  37 H       2.7981242 *  2.1937594 *  1.1090198 *  3.4688092    4.3727469  
  38 H       2.8299403 *  2.1991767 *  1.1095581 *  2.7926699 *  3.9355348  
  39 H       3.5200488    2.2031045 *  1.1075354 *  2.7268079 *  3.2823079  
  40 H       4.0198159    2.7746269 *  3.6563598    2.1848054 *  1.0990789 *
  41 H       7.3645077    5.8889476    5.3898344    5.2121889    4.6418205  
  42 H      10.3229459    8.8167281    8.6616813    8.0691078    6.9847984  
  43 H       8.5635024    7.0894563    7.1400027    6.5514854    5.3823495  
  44 H       7.8881680    6.3595164    6.0551644    6.0263651    5.1448086  
  45 H       9.5713133    8.0594941    7.8028778    7.7236228    6.7287943  
  46 H      10.7278492    9.1941687    8.6308092    8.7398337    7.9366213  
  47 H      10.5772608    9.0769518    8.5414183    8.3929068    7.6380924  
  48 H       9.2761737    7.7648739    7.0938892    7.3117361    6.6827862  
  49 H      10.0061724    8.6222614    8.7918631    7.5520230    6.3564811  
  50 H       2.8757865 *  2.7944626 *  3.2202545    2.1907542 *  3.4191561  

                6 C          7 N          8 O          9 O         10 C     

   1 C       4.8931143    6.1048925    6.3921994    6.9531300    5.2399415  
   2 C       3.8335494    4.9812109    5.1127848    5.9799629    4.3994248  
   3 C       4.6097278    5.7443175    5.7202088    6.8434187    5.0604309  
   4 C       2.4426918 *  3.7561403    4.1488394    4.6720698    2.8841715 *
   5 C       1.3988021 *  2.4425376 *  2.7672455 *  3.4592504    2.4691697 *
   6 C       0.0000000    1.4762494 *  2.3161724 *  2.3117718 *  1.4212900 *
   7 N       1.4762494 *  0.0000000    1.2354525 *  1.2306814 *  2.5277322 *
   8 O       2.3161724 *  1.2354525 *  0.0000000    2.1965380 *  3.5449097  
   9 O       2.3117718 *  1.2306814 *  2.1965380 *  0.0000000    2.8758794 *
  10 C       1.4212900 *  2.5277322 *  3.5449097    2.8758794 *  0.0000000  
  11 N       2.5710737 *  3.1108552    4.1759141    3.0072661    1.4201772 *
  12 N       3.0982441    3.1885648    4.0487671    3.0354943    2.3505838 *
  13 C       3.0263422    2.8198170 *  3.2764691    3.0154573    2.8527820 *
  14 C       3.1262088    3.2614182    3.3944732    3.9051323    3.1309776  
  15 N       3.2532667    3.9756026    4.2715962    4.7085560    2.9235954 *
  16 O       3.8210637    4.6478999    5.1790674    5.1550801    3.0161447  
  17 O       3.4642478    4.3313693    4.4242415    5.2808849    3.4449496  
  18 C       3.9567184    3.8162261    3.4704166    4.5933601    4.3260325  
  19 C       4.6439030    4.0414150    3.4788682    4.6302561    5.1669742  
  20 C       5.8384736    5.1680873    4.3297974    5.8236225    6.5324034  
  21 C       5.6807640    4.9939030    3.9142038    5.8103598    6.6511699  
  22 C       6.8241976    6.3918993    5.6256511    7.1151183    7.3727531  
  23 C       4.6031050    3.7229745    3.3888890    3.9401185    5.0199311  
  24 C       3.8858072    3.1194544    3.2777662    3.0806989    4.0175168  
  25 N       4.6043551    3.6595692    4.0184771    3.0915534    4.6208215  
  26 O       4.4030236    3.6330416    4.3301519    2.7895937 *  4.1806334  
  27 O       5.7010600    4.6068661    4.7468306    4.0271462    5.8297150  
  28 C       2.3968912 *  3.7763053    4.6804787    4.2201884    1.4180207 *
  29 N       3.7871046    5.0485303    6.0308278    5.2762094    2.5287962 *
  30 O       4.2820038    5.3565825    6.4705890    5.3058650    2.9609677 *
  31 O       4.6331722    5.9561192    6.8180116    6.3167958    3.4724194  
  32 C       2.7834100 *  4.2566368    4.9240665    4.9548695    2.4698987 *
  33 H       5.2157078    6.5606980    6.9736913    7.3524625    5.2695344  
  34 H       4.8336547    5.9595061    6.3461195    6.6708914    5.2028780  
  35 H       5.8461497    6.9792954    7.1319716    7.8804899    6.2914129  
  36 H       3.9755755    4.8557306    4.7844974    5.8929171    4.8456237  
  37 H       5.6175124    6.6765503    6.5454854    7.7974384    6.1433853  
  38 H       4.8966002    6.1709364    6.3018242    7.1994113    5.0365744  
  39 H       4.3341788    5.3095132    5.1244528    6.4757553    4.9005535  
  40 H       2.1445916 *  2.5903801 *  2.4610055 *  3.6853912    3.4428991  
  41 H       4.4457824    4.5284144    4.0867762    5.4512966    4.8508862  
  42 H       6.4939021    5.6276716    4.8017745    6.0969066    7.1764966  
  43 H       5.2530843    4.3612367    3.2075165    5.0965907    6.3356883  
  44 H       5.2783110    4.8571944    3.8137972    5.8439643    6.2632348  
  45 H       6.7399874    6.0296613    4.9005413    6.8247624    7.7459762  
  46 H       7.7505606    7.2506443    6.3764516    7.9804468    8.3891036  
  47 H       7.2086407    6.7996457    6.1835611    7.4051436    7.5701284  
  48 H       6.5649526    6.3611428    5.6320651    7.2175288    7.0893975  
  49 H       5.4628445    4.3907551    3.9684419    4.4321526    5.9421709  
  50 H       3.8807746    5.3548967    6.0013546    6.0294158    3.4401369  

               11 N         12 N         13 C         14 C         15 N     

   1 C       6.6063958    7.5261910    7.5800821    7.0437639    6.2450933  
   2 C       5.7955670    6.5398364    6.3773096    5.7254882    5.0375690  
   3 C       6.3450956    6.9302970    6.6040899    5.6606732    4.7915204  
   4 C       4.2867367    5.0735336    5.0410353    4.5774957    3.9577584  
   5 C       3.8191301    4.4090952    4.1914276    3.8996951    3.7498350  
   6 C       2.5710737 *  3.0982441    3.0263422    3.1262088    3.2532667  
   7 N       3.1108552    3.1885648    2.8198170 *  3.2614182    3.9756026  
   8 O       4.1759141    4.0487671    3.2764691    3.3944732    4.2715962  
   9 O       3.0072661    3.0354943    3.0154573    3.9051323    4.7085560  
  10 C       1.4201772 *  2.3505838 *  2.8527820 *  3.1309776    2.9235954 *
  11 N       0.0000000    1.2505398 *  2.3688436 *  3.1291765    3.1574757  
  12 N       1.2505398 *  0.0000000    1.4095569 *  2.5161795 *  3.0036623  
  13 C       2.3688436 *  1.4095569 *  0.0000000    1.4240468 *  2.5268908 *
  14 C       3.1291765    2.5161795 *  1.4240468 *  0.0000000    1.4769506 *
  15 N       3.1574757    3.0036623    2.5268908 *  1.4769506 *  0.0000000  
  16 O       2.8810899 *  2.8311631 *  2.8800600 *  2.3166261 *  1.2313244 *
  17 O       4.0744711    4.1074307    3.5414984    2.3155347 *  1.2354172 *
  18 C       4.4681696    3.7866189    2.4701299 *  1.3975269 *  2.4467368 *
  19 C       5.1626774    4.2968007    2.8891304 *  2.4451110 *  3.7617022  
  20 C       6.6474169    5.8127272    4.4047576    3.8408512    4.9952139  
  21 C       7.0564750    6.4329751    5.0671721    4.4406045    5.4535837  
  22 C       7.4681867    6.6220894    5.2447454    4.4148727    5.2911823  
  23 C       4.7443416    3.7405441    2.4717308 *  2.7813782 *  4.2555868  
  24 C       3.5021971    2.4427082 *  1.4186307 *  2.3981455 *  3.7771697  
  25 N       3.8488779    2.8443662 *  2.5048031 *  3.7703183    5.0274887  
  26 O       3.2391826    2.4663643 *  2.7610444 *  4.1737610    5.1896215  
  27 O       5.0802462    4.0517457    3.5897949    4.7097353    6.0600013  
  28 C       2.3932999 *  3.4530897    4.0227884    3.9797283    3.2286385  
  29 N       2.7860445 *  3.8592673    4.7444242    4.8090991    3.8995911  
  30 O       2.8407114 *  3.9671178    5.1070396    5.4807210    4.7965684  
  31 O       3.7304988    4.6226436    5.3653512    5.1683817    3.9893170  
  32 C       3.6993527    4.6572843    4.9470005    4.5920178    3.6999323  
  33 H       6.5410147    7.5191961    7.7032679    7.1578213    6.1787822  
  34 H       6.5517367    7.5448732    7.7081479    7.3643196    6.6956584  
  35 H       7.6712789    8.5486663    8.5124179    7.8856559    7.0893238  
  36 H       6.2538639    6.9074625    6.6050674    5.9879884    5.5426631  
  37 H       7.4455108    8.0234417    7.6473247    6.6612773    5.8232600  
  38 H       6.2178249    6.8508863    6.6612185    5.7044692    4.6012083  
  39 H       6.1066814    6.5050476    5.9816863    4.9174562    4.1756782  
  40 H       4.7047200    5.1372823    4.7017253    4.3658775    4.4408841  
  41 H       5.1811487    4.6496875    3.4384100    2.1357034 *  2.5847807 *
  42 H       7.1526256    6.2188905    4.8505161    4.5665644    5.8487653  
  43 H       6.7627632    6.1952541    4.9060124    4.5341074    5.6431203  
  44 H       6.8384422    6.3618330    5.0453994    4.1838638    4.9422547  
  45 H       8.1648429    7.5252550    6.1504192    5.5115688    6.4848833  
  46 H       8.5293622    7.6869133    6.2967304    5.4936309    6.3553650  
  47 H       7.4713860    6.5184368    5.2075090    4.4776301    5.3539770  
  48 H       7.3208672    6.6050115    5.2738826    4.1995504    4.7983522  
  49 H       5.6078563    4.5791841    3.4390326    3.8790176    5.3537484  
  50 H       4.5221253    5.5090070    5.8684533    5.4312601    4.3424786  

               16 O         17 O         18 C         19 C         20 C     

   1 C       6.6576388    5.5166819    7.5800623    8.6143297    9.4023586  
   2 C       5.6527106    4.2376306    6.1313204    7.1455434    7.8814085  
   3 C       5.4580960    3.7339077    5.8883398    7.0270996    7.6315321  
   4 C       4.4869640    3.4605784    5.2270926    6.2387039    7.1986180  
   5 C       4.4698578    3.4753740    4.4555749    5.2455515    6.2081446  
   6 C       3.8210637    3.4642478    3.9567184    4.6439030    5.8384736  
   7 N       4.6478999    4.3313693    3.8162261    4.0414150    5.1680873  
   8 O       5.1790674    4.4242415    3.4704166    3.4788682    4.3297974  
   9 O       5.1550801    5.2808849    4.5933601    4.6302561    5.8236225  
  10 C       3.0161447    3.4449496    4.3260325    5.1669742    6.5324034  
  11 N       2.8810899 *  4.0744711    4.4681696    5.1626774    6.6474169  
  12 N       2.8311631 *  4.1074307    3.7866189    4.2968007    5.8127272  
  13 C       2.8800600 *  3.5414984    2.4701299 *  2.8891304 *  4.4047576  
  14 C       2.3166261 *  2.3155347 *  1.3975269 *  2.4451110 *  3.8408512  
  15 N       1.2313244 *  1.2354172 *  2.4467368 *  3.7617022    4.9952139  
  16 O       0.0000000    2.1951425 *  3.4721462    4.6840482    5.9995006  
  17 O       2.1951425 *  0.0000000    2.7657597 *  4.1520822    5.1272568  
  18 C       3.4721462    2.7657597 *  0.0000000    1.4066507 *  2.5523642 *
  19 C       4.6840482    4.1520822    1.4066507 *  0.0000000    1.5189294 *
  20 C       5.9995006    5.1272568    2.5523642 *  1.5189294 *  0.0000000  
  21 C       6.5980860    5.3110709    3.2055231    2.5019528 *  1.5431165 *
  22 C       6.2340271    5.3064370    3.0676737    2.5446277 *  1.5378001 *
  23 C       4.9584169    4.9225514    2.4024192 *  1.4049363 *  2.5463390 *
  24 C       4.2313015    4.6751566    2.7728908 *  2.4384868 *  3.8319417  
  25 N       5.2701636    5.9986867    4.2520383    3.7685460    5.0012994  
  26 O       5.2304332    6.2112824    4.9627520    4.7432699    6.0731374  
  27 O       6.3551961    6.9932310    4.9176310    4.1151691    5.0764822  
  28 C       3.0921819    3.4631964    5.1553674    6.2070798    7.5148339  
  29 N       3.2727499    4.3027821    6.1005388    7.1886433    8.5679772  
  30 O       4.0970800    5.3627352    6.8349700    7.7851919    9.2271348  
  31 O       3.2369652    4.2355783    6.3832261    7.6001143    8.9191938  
  32 C       3.8357932    3.4427712    5.5267555    6.6531940    7.7892549  
  33 H       6.4067850    5.4955883    7.8171496    8.9557968    9.8351210  
  34 H       7.0675411    6.1185005    7.9784440    8.9167521    9.7621388  
  35 H       7.5689300    6.2429930    8.2911377    9.3077391    9.9660132  
  36 H       6.3091796    4.7457853    6.2169535    7.0663121    7.6595865  
  37 H       6.5125558    4.7076058    6.7583528    7.8470483    8.2998808  
  38 H       5.0552024    3.5858696    6.0874886    7.3449926    8.0618626  
  39 H       5.0208717    3.0380482    4.9604360    6.0763927    6.5950450  
  40 H       5.3211859    4.0535369    4.6150694    5.2113721    5.9542104  
  41 H       3.6913595    2.4454682 *  1.0987011 *  2.1908965 *  2.7966165 *
  42 H       6.7692862    6.1134391    3.4197894    2.1233921 *  1.1113824 *
  43 H       6.7653116    5.5843351    3.5247047    2.7294038 *  2.2025654 *
  44 H       6.1453862    4.5807405    2.9853898 *  2.7974863 *  2.1974975 *
  45 H       7.6337073    6.2706734    4.2254122    3.4725922    2.1953004 *
  46 H       7.3223562    6.2816419    4.1248438    3.4994840    2.1861636 *
  47 H       6.1269778    5.5580108    3.2953253    2.7935406 *  2.2018600 *
  48 H       5.7832537    4.6100249    2.8727032 *  2.8703540 *  2.2037325 *
  49 H       6.0269076    6.0055707    3.4180493    2.1915067 *  2.7911544 *
  50 H       4.3123084    3.9793046    6.3560931    7.5633082    8.6712255  

               21 C         22 C         23 C         24 C         25 N     

   1 C       8.7689120    9.9780603    9.0941725    8.6287024    9.4902526  
   2 C       7.2491781    8.4525519    7.7080165    7.3655500    8.3413763  
   3 C       7.0623055    7.9284817    7.8250075    7.6352729    8.7963922  
   4 C       6.7818335    7.8855807    6.6146985    6.0911037    6.9863571  
   5 C       5.7569559    7.0974104    5.4966951    5.0295805    5.8781695  
   6 C       5.6807640    6.8241976    4.6031050    3.8858072    4.6043551  
   7 N       4.9939030    6.3918993    3.7229745    3.1194544    3.6595692  
   8 O       3.9142038    5.6256511    3.3888890    3.2777662    4.0184771  
   9 O       5.8103598    7.1151183    3.9401185    3.0806989    3.0915534  
  10 C       6.6511699    7.3727531    5.0199311    4.0175168    4.6208215  
  11 N       7.0564750    7.4681867    4.7443416    3.5021971    3.8488779  
  12 N       6.4329751    6.6220894    3.7405441    2.4427082 *  2.8443662 *
  13 C       5.0671721    5.2447454    2.4717308 *  1.4186307 *  2.5048031 *
  14 C       4.4406045    4.4148727    2.7813782 *  2.3981455 *  3.7703183  
  15 N       5.4535837    5.2911823    4.2555868    3.7771697    5.0274887  
  16 O       6.5980860    6.2340271    4.9584169    4.2313015    5.2701636  
  17 O       5.3110709    5.3064370    4.9225514    4.6751566    5.9986867  
  18 C       3.2055231    3.0676737    2.4024192 *  2.7728908 *  4.2520383  
  19 C       2.5019528 *  2.5446277 *  1.4049363 *  2.4384868 *  3.7685460  
  20 C       1.5431165 *  1.5378001 *  2.5463390 *  3.8319417    5.0012994  
  21 C       0.0000000    2.5513095 *  3.4545440    4.6090243    5.7396489  
  22 C       2.5513095 *  0.0000000    3.7172931    4.8905516    6.1385612  
  23 C       3.4545440    3.7172931    0.0000000    1.3965095 *  2.4612116 *
  24 C       4.6090243    4.8905516    1.3965095 *  0.0000000    1.4802164 *
  25 N       5.7396489    6.1385612    2.4612116 *  1.4802164 *  0.0000000  
  26 O       6.7076995    7.1933381    3.5519292    2.3216158 *  1.2325820 *
  27 O       5.8855011    6.2309507    2.7123768 *  2.3191957 *  1.2331721 *
  28 C       7.5767043    8.1809243    6.2522790    5.3091679    5.9805946  
  29 N       8.8064867    9.1186415    7.1570596    6.0847473    6.6215621  
  30 O       9.5148052    9.8826264    7.5420754    6.3325635    6.5988067  
  31 O       9.2010076    9.2753036    7.7398468    6.7668765    7.4503464  
  32 C       7.6220594    8.3879779    6.9255992    6.1868826    7.0057267  
  33 H       9.3456551   10.3206896    9.4292482    8.8695830    9.7331203  
  34 H       9.1082192   10.4801259    9.2454064    8.6957375    9.4082202  
  35 H       9.2178220   10.4807005    9.8810745    9.5193900   10.4299284  
  36 H       6.8391729    8.3288763    7.6311189    7.4192975    8.3714437  
  37 H       7.6014976    8.5264066    8.7193129    8.6239018    9.8036350  
  38 H       7.6788745    8.2510736    8.1233449    7.8238381    8.9846863  
  39 H       6.0401085    6.8433797    6.9762325    6.9266800    8.1760432  
  40 H       5.2543294    6.9209421    5.5305613    5.2947908    6.1507393  
  41 H       3.2331042    2.8728190 *  3.4164830    3.8704417    5.3499047  
  42 H       2.1604408 *  2.1578590 *  2.5810354 *  3.9754892    4.8872406  
  43 H       1.1077276 *  3.5193448    3.2893543    4.3335991    5.2896648  
  44 H       1.1101564 *  2.8254059 *  3.9431319    4.8970346    6.1599938  
  45 H       1.1090452 *  2.8001500 *  4.3789486    5.6173700    6.6771738  
  46 H       2.8087915 *  1.1085635 *  4.5807007    5.8448018    7.0148709  
  47 H       3.5232422    1.1084108 *  3.7502219    4.8313827    6.0096075  
  48 H       2.8166191 *  1.1099648 *  4.2169580    5.2119622    6.5845693  
  49 H       3.6768932    4.0321711    1.0988531 *  2.1365541 *  2.6081517 *
  50 H       8.5149135    9.1472879    7.9042930    7.1654785    7.9984793  

               26 O         27 O         28 C         29 N         30 O     

   1 C       9.2221417   10.5802760    4.4069871    5.2996129    6.0944447  
   2 C       8.2247276    9.3874813    3.8341712    5.0028561    5.9178998  
   3 C       8.8228200    9.8158727    4.4378514    5.4587315    6.5491479  
   4 C       6.7861395    8.0854172    2.4364331 *  3.7677472    4.6290267  
   5 C       5.7694316    6.9108581    2.7733644 *  4.2624594    4.9521329  
   6 C       4.4030236    5.7010600    2.3968912 *  3.7871046    4.2820038  
   7 N       3.6330416    4.6068661    3.7763053    5.0485303    5.3565825  
   8 O       4.3301519    4.7468306    4.6804787    6.0308278    6.4705890  
   9 O       2.7895937 *  4.0271462    4.2201884    5.2762094    5.3058650  
  10 C       4.1806334    5.8297150    1.4180207 *  2.5287962 *  2.9609677 *
  11 N       3.2391826    5.0802462    2.3932999 *  2.7860445 *  2.8407114 *
  12 N       2.4663643 *  4.0517457    3.4530897    3.8592673    3.9671178  
  13 C       2.7610444 *  3.5897949    4.0227884    4.7444242    5.1070396  
  14 C       4.1737610    4.7097353    3.9797283    4.8090991    5.4807210  
  15 N       5.1896215    6.0600013    3.2286385    3.8995911    4.7965684  
  16 O       5.2304332    6.3551961    3.0921819    3.2727499    4.0970800  
  17 O       6.2112824    6.9932310    3.4631964    4.3027821    5.3627352  
  18 C       4.9627520    4.9176310    5.1553674    6.1005388    6.8349700  
  19 C       4.7432699    4.1151691    6.2070798    7.1886433    7.7851919  
  20 C       6.0731374    5.0764822    7.5148339    8.5679772    9.2271348  
  21 C       6.7076995    5.8855011    7.5767043    8.8064867    9.5148052  
  22 C       7.1933381    6.2309507    8.1809243    9.1186415    9.8826264  
  23 C       3.5519292    2.7123768 *  6.2522790    7.1570596    7.5420754  
  24 C       2.3216158 *  2.3191957 *  5.3091679    6.0847473    6.3325635  
  25 N       1.2325820 *  1.2331721 *  5.9805946    6.6215621    6.5988067  
  26 O       0.0000000    2.1912407 *  5.5012546    5.9972239    5.7814429  
  27 O       2.1912407 *  0.0000000    7.1998467    7.8525173    7.8114772  
  28 C       5.5012546    7.1998467    0.0000000    1.4910501 *  2.3201432 *
  29 N       5.9972239    7.8525173    1.4910501 *  0.0000000    1.2253057 *
  30 O       5.7814429    7.8114772    2.3201432 *  1.2253057 *  0.0000000  
  31 O       6.9306850    8.6660771    2.3140690 *  1.2304790 *  2.1952288 *
  32 C       6.6468230    8.1883019    1.3951823 *  2.4538394 *  3.4058730  
  33 H       9.4001634   10.8754024    4.1943914    4.8070566    5.6321182  
  34 H       9.0427055   10.4916859    4.4661874    5.3618286    5.9635627  
  35 H      10.2211351   11.4864856    5.4861805    6.3638308    7.1811254  
  36 H       8.3340888    9.3346155    4.5585526    5.8566151    6.6954695  
  37 H       9.8664699   10.7878867    5.5075751    6.4893586    7.5697251  
  38 H       8.9446646   10.0584930    4.1825852    4.9457900    6.0952162  
  39 H       8.3393206    9.1329051    4.5342103    5.6488056    6.7587609  
  40 H       6.1840458    7.0576932    3.8717218    5.3612127    6.0237253  
  41 H       6.0306299    6.0008986    5.4404424    6.3905346    7.2686884  
  42 H       6.0553714    4.6912099    8.2696898    9.2956828    9.8539350  
  43 H       6.2025587    5.4183291    7.3647794    8.6552806    9.2668728  
  44 H       7.0080085    6.5008809    7.0246574    8.2798917    9.0888407  
  45 H       7.6946707    6.6883862    8.6462745    9.8876413   10.6144332  
  46 H       8.1167718    6.9806341    9.1980654   10.1789541   10.9556123  
  47 H       7.0729450    6.0499312    8.3853170    9.1766606    9.8903500  
  48 H       7.5307972    6.8603319    7.7325048    8.6640210    9.5295519  
  49 H       3.8162070    2.3401996 *  7.2325207    8.1383895    8.4412125  
  50 H       7.6070175    9.1946745    2.1415786 *  2.5984169 *  3.5957401  

               31 O         32 C         33 H         34 H         35 H     

   1 C       5.4355007    3.0660474    1.1096723 *  1.1083941 *  1.1084986 *
   2 C       5.1935320    2.5524561 *  2.2030357 *  2.2021092 *  2.1854932 *
   3 C       5.3400028    3.2034345    2.8157177 *  3.5241994    2.8097677 *
   4 C       4.1876010    1.4077262 *  2.8693180 *  2.7951124 *  3.4989998  
   5 C       4.9154511    2.4067127 *  4.2161087    3.7520315    4.5787863  
   6 C       4.6331722    2.7834100 *  5.2157078    4.8336547    5.8461497  
   7 N       5.9561192    4.2566368    6.5606980    5.9595061    6.9792954  
   8 O       6.8180116    4.9240665    6.9736913    6.3461195    7.1319716  
   9 O       6.3167958    4.9548695    7.3524625    6.6708914    7.8804899  
  10 C       3.4724194    2.4698987 *  5.2695344    5.2028780    6.2914129  
  11 N       3.7304988    3.6993527    6.5410147    6.5517367    7.6712789  
  12 N       4.6226436    4.6572843    7.5191961    7.5448732    8.5486663  
  13 C       5.3653512    4.9470005    7.7032679    7.7081479    8.5124179  
  14 C       5.1683817    4.5920178    7.1578213    7.3643196    7.8856559  
  15 N       3.9893170    3.6999323    6.1787822    6.6956584    7.0893238  
  16 O       3.2369652    3.8357932    6.4067850    7.0675411    7.5689300  
  17 O       4.2355783    3.4427712    5.4955883    6.1185005    6.2429930  
  18 C       6.3832261    5.5267555    7.8171496    7.9784440    8.2911377  
  19 C       7.6001143    6.6531940    8.9557968    8.9167521    9.3077391  
  20 C       8.9191938    7.7892549    9.8351210    9.7621388    9.9660132  
  21 C       9.2010076    7.6220594    9.3456551    9.1082192    9.2178220  
  22 C       9.2753036    8.3879779   10.3206896   10.4801259   10.4807005  
  23 C       7.7398468    6.9255992    9.4292482    9.2454064    9.8810745  
  24 C       6.7668765    6.1868826    8.8695830    8.6957375    9.5193900  
  25 N       7.4503464    7.0057267    9.7331203    9.4082202   10.4299284  
  26 O       6.9306850    6.6468230    9.4001634    9.0427055   10.2211351  
  27 O       8.6660771    8.1883019   10.8754024   10.4916859   11.4864856  
  28 C       2.3140690 *  1.3951823 *  4.1943914    4.4661874    5.4861805  
  29 N       1.2304790 *  2.4538394 *  4.8070566    5.3618286    6.3638308  
  30 O       2.1952288 *  3.4058730    5.6321182    5.9635627    7.1811254  
  31 O       0.0000000    2.8189727 *  4.7617093    5.7029634    6.4117330  
  32 C       2.8189727 *  0.0000000    2.8695318 *  3.2939806    4.1229800  
  33 H       4.7617093    2.8695318 *  0.0000000    1.7937740 *  1.7842242 *
  34 H       5.7029634    3.2939806    1.7937740 *  0.0000000    1.7946733 *
  35 H       6.4117330    4.1229800    1.7842242 *  1.7946733 *  0.0000000  
  36 H       6.1695418    3.4214177    3.0993880    2.5303091 *  2.4848152 *
  37 H       6.3134360    4.2219324    3.1457251    3.8236347    2.5990531 *
  38 H       4.6118168    2.9812558 *  2.6402480 *  3.8441464    3.1984285  
  39 H       5.5684855    3.5251747    3.8403902    4.3796731    3.8215415  
  40 H       5.9963694    3.4175898    4.7377150    4.0325819    4.6902299  
  41 H       6.5003106    5.5770798    7.5881661    7.8989271    7.9732380  
  42 H       9.7220331    8.6463979   10.7796152   10.6117827   10.9103843  
  43 H       9.1861666    7.4510630    9.2076936    8.7730083    9.0492897  
  44 H       8.5887166    6.9112712    8.4538028    8.3122605    8.2860682  
  45 H      10.2518512    8.6255644   10.1916118    9.9342588    9.9315431  
  46 H      10.3296403    9.3339347   11.1268149   11.2434097   11.1546265  
  47 H       9.2951314    8.7330198   10.8303658   11.0786329   11.1447524  
  48 H       8.7117009    7.8080415    9.5785561    9.8653270    9.7311510  
  49 H       8.7740555    7.9205337   10.3964531   10.1032786   10.7745771  
  50 H       2.5624874 *  1.0986385 *  2.2951351 *  3.2519418    3.8638754  

               36 H         37 H         38 H         39 H         40 H     

   1 C       2.1583646 *  2.7981242 *  2.8299403 *  3.5200488    4.0198159  
   2 C       1.1115928 *  2.1937594 *  2.1991767 *  2.2031045 *  2.7746269 *
   3 C       2.1611599 *  1.1090198 *  1.1095581 *  1.1075354 *  3.6563598  
   4 C       2.1246387 *  3.4688092    2.7926699 *  2.7268079 *  2.1848054 *
   5 C       2.5787077 *  4.3727469    3.9355348    3.2823079    1.0990789 *
   6 C       3.9755755    5.6175124    4.8966002    4.3341788    2.1445916 *
   7 N       4.8557306    6.6765503    6.1709364    5.3095132    2.5903801 *
   8 O       4.7844974    6.5454854    6.3018242    5.1244528    2.4610055 *
   9 O       5.8929171    7.7974384    7.1994113    6.4757553    3.6853912  
  10 C       4.8456237    6.1433853    5.0365744    4.9005535    3.4428991  
  11 N       6.2538639    7.4455108    6.2178249    6.1066814    4.7047200  
  12 N       6.9074625    8.0234417    6.8508863    6.5050476    5.1372823  
  13 C       6.6050674    7.6473247    6.6612185    5.9816863    4.7017253  
  14 C       5.9879884    6.6612773    5.7044692    4.9174562    4.3658775  
  15 N       5.5426631    5.8232600    4.6012083    4.1756782    4.4408841  
  16 O       6.3091796    6.5125558    5.0552024    5.0208717    5.3211859  
  17 O       4.7457853    4.7076058    3.5858696    3.0380482    4.0535369  
  18 C       6.2169535    6.7583528    6.0874886    4.9604360    4.6150694  
  19 C       7.0663121    7.8470483    7.3449926    6.0763927    5.2113721  
  20 C       7.6595865    8.2998808    8.0618626    6.5950450    5.9542104  
  21 C       6.8391729    7.6014976    7.6788745    6.0401085    5.2543294  
  22 C       8.3288763    8.5264066    8.2510736    6.8433797    6.9209421  
  23 C       7.6311189    8.7193129    8.1233449    6.9762325    5.5305613  
  24 C       7.4192975    8.6239018    7.8238381    6.9266800    5.2947908  
  25 N       8.3714437    9.8036350    8.9846863    8.1760432    6.1507393  
  26 O       8.3340888    9.8664699    8.9446646    8.3393206    6.1840458  
  27 O       9.3346155   10.7878867   10.0584930    9.1329051    7.0576932  
  28 C       4.5585526    5.5075751    4.1825852    4.5342103    3.8717218  
  29 N       5.8566151    6.4893586    4.9457900    5.6488056    5.3612127  
  30 O       6.6954695    7.5697251    6.0952162    6.7587609    6.0237253  
  31 O       6.1695418    6.3134360    4.6118168    5.5684855    5.9963694  
  32 C       3.4214177    4.2219324    2.9812558 *  3.5251747    3.4175898  
  33 H       3.0993880    3.1457251    2.6402480 *  3.8403902    4.7377150  
  34 H       2.5303091 *  3.8236347    3.8441464    4.3796731    4.0325819  
  35 H       2.4848152 *  2.5990531 *  3.1984285    3.8215415    4.6902299  
  36 H       0.0000000    2.5055483 *  3.0963478    2.5180031 *  2.3489600 *
  37 H       2.5055483 *  0.0000000    1.7953169 *  1.8004121 *  4.3971856  
  38 H       3.0963478    1.7953169 *  0.0000000    1.7854653 *  4.3920813  
  39 H       2.5180031 *  1.8004121 *  1.7854653 *  0.0000000    3.3781312  
  40 H       2.3489600 *  4.3971856    4.3920813    3.3781312    0.0000000  
  41 H       5.9931517    6.1667614    5.5814391    4.3828332    4.7498048  
  42 H       8.5522518    9.3414283    9.1073109    7.6444886    6.7037394  
  43 H       6.5943270    7.7132359    7.8220243    6.2029823    4.7943076  
  44 H       5.9750200    6.5500902    6.6859486    5.0126764    4.6456910  
  45 H       7.5746402    8.2293818    8.4666425    6.7679791    6.1381806  
  46 H       8.9838547    9.1302398    9.0201182    7.5290157    7.6492244  
  47 H       9.0553892    9.2068284    8.7456704    7.4815641    7.5918959  
  48 H       7.7010621    7.6476524    7.3773558    6.0005124    6.5459436  
  49 H       8.4583376    9.6525914    9.1478851    7.9323131    6.2842557  
  50 H       3.8350409    4.1165940    2.6980517 *  3.7818109    4.3536684  

               41 H         42 H         43 H         44 H         45 H     

   1 C       7.3645077   10.3229459    8.5635024    7.8881680    9.5713133  
   2 C       5.8889476    8.8167281    7.0894563    6.3595164    8.0594941  
   3 C       5.3898344    8.6616813    7.1400027    6.0551644    7.8028778  
   4 C       5.2121889    8.0691078    6.5514854    6.0263651    7.7236228  
   5 C       4.6418205    6.9847984    5.3823495    5.1448086    6.7287943  
   6 C       4.4457824    6.4939021    5.2530843    5.2783110    6.7399874  
   7 N       4.5284144    5.6276716    4.3612367    4.8571944    6.0296613  
   8 O       4.0867762    4.8017745    3.2075165    3.8137972    4.9005413  
   9 O       5.4512966    6.0969066    5.0965907    5.8439643    6.8247624  
  10 C       4.8508862    7.1764966    6.3356883    6.2632348    7.7459762  
  11 N       5.1811487    7.1526256    6.7627632    6.8384422    8.1648429  
  12 N       4.6496875    6.2188905    6.1952541    6.3618330    7.5252550  
  13 C       3.4384100    4.8505161    4.9060124    5.0453994    6.1504192  
  14 C       2.1357034 *  4.5665644    4.5341074    4.1838638    5.5115688  
  15 N       2.5847807 *  5.8487653    5.6431203    4.9422547    6.4848833  
  16 O       3.6913595    6.7692862    6.7653116    6.1453862    7.6337073  
  17 O       2.4454682 *  6.1134391    5.5843351    4.5807405    6.2706734  
  18 C       1.0987011 *  3.4197894    3.5247047    2.9853898 *  4.2254122  
  19 C       2.1908965 *  2.1233921 *  2.7294038 *  2.7974863 *  3.4725922  
  20 C       2.7966165 *  1.1113824 *  2.2025654 *  2.1974975 *  2.1953004 *
  21 C       3.2331042    2.1604408 *  1.1077276 *  1.1101564 *  1.1090452 *
  22 C       2.8728190 *  2.1578590 *  3.5193448    2.8254059 *  2.8001500 *
  23 C       3.4164830    2.5810354 *  3.2893543    3.9431319    4.3789486  
  24 C       3.8704417    3.9754892    4.3335991    4.8970346    5.6173700  
  25 N       5.3499047    4.8872406    5.2896648    6.1599938    6.6771738  
  26 O       6.0306299    6.0553714    6.2025587    7.0080085    7.6946707  
  27 O       6.0008986    4.6912099    5.4183291    6.5008809    6.6883862  
  28 C       5.4404424    8.2696898    7.3647794    7.0246574    8.6462745  
  29 N       6.3905346    9.2956828    8.6552806    8.2798917    9.8876413  
  30 O       7.2686884    9.8539350    9.2668728    9.0888407   10.6144332  
  31 O       6.5003106    9.7220331    9.1861666    8.5887166   10.2518512  
  32 C       5.5770798    8.6463979    7.4510630    6.9112712    8.6255644  
  33 H       7.5881661   10.7796152    9.2076936    8.4538028   10.1916118  
  34 H       7.8989271   10.6117827    8.7730083    8.3122605    9.9342588  
  35 H       7.9732380   10.9103843    9.0492897    8.2860682    9.9315431  
  36 H       5.9931517    8.5522518    6.5943270    5.9750200    7.5746402  
  37 H       6.1667614    9.3414283    7.7132359    6.5500902    8.2293818  
  38 H       5.5814391    9.1073109    7.8220243    6.6859486    8.4666425  
  39 H       4.3828332    7.6444886    6.2029823    5.0126764    6.7679791  
  40 H       4.7498048    6.7037394    4.7943076    4.6456910    6.1381806  
  41 H       0.0000000    3.8349670    3.7941962    2.7147025 *  4.1304033  
  42 H       3.8349670    0.0000000    2.5180864 *  3.0951050    2.5063278 *
  43 H       3.7941962    2.5180864 *  0.0000000    1.7881276 *  1.7998183 *
  44 H       2.7147025 *  3.0951050    1.7881276 *  0.0000000    1.7944477 *
  45 H       4.1304033    2.5063278 *  1.7998183 *  1.7944477 *  0.0000000  
  46 H       3.8632980    2.4855929 *  3.8214785    3.1929180    2.6010845 *
  47 H       3.2429726    2.5290091 *  4.3788700    3.8404421    3.8251333  
  48 H       2.2934445 *  3.0995938    3.8408851    2.6367190 *  3.1497256  
  49 H       4.3582862    2.3663590 *  3.3993886    4.4123014    4.4187695  
  50 H       6.2914323    9.5716106    8.4157695    7.7379620    9.4914596  

               46 H         47 H         48 H         49 H         50 H     

   1 C      10.7278492   10.5772608    9.2761737   10.0061724    2.8757865 *
   2 C       9.1941687    9.0769518    7.7648739    8.6222614    2.7944626 *
   3 C       8.6308092    8.5414183    7.0938892    8.7918631    3.2202545  
   4 C       8.7398337    8.3929068    7.3117361    7.5520230    2.1907542 *
   5 C       7.9366213    7.6380924    6.6827862    6.3564811    3.4191561  
   6 C       7.7505606    7.2086407    6.5649526    5.4628445    3.8807746  
   7 N       7.2506443    6.7996457    6.3611428    4.3907551    5.3548967  
   8 O       6.3764516    6.1835611    5.6320651    3.9684419    6.0013546  
   9 O       7.9804468    7.4051436    7.2175288    4.4321526    6.0294158  
  10 C       8.3891036    7.5701284    7.0893975    5.9421709    3.4401369  
  11 N       8.5293622    7.4713860    7.3208672    5.6078563    4.5221253  
  12 N       7.6869133    6.5184368    6.6050115    4.5791841    5.5090070  
  13 C       6.2967304    5.2075090    5.2738826    3.4390326    5.8684533  
  14 C       5.4936309    4.4776301    4.1995504    3.8790176    5.4312601  
  15 N       6.3553650    5.3539770    4.7983522    5.3537484    4.3424786  
  16 O       7.3223562    6.1269778    5.7832537    6.0269076    4.3123084  
  17 O       6.2816419    5.5580108    4.6100249    6.0055707    3.9793046  
  18 C       4.1248438    3.2953253    2.8727032 *  3.4180493    6.3560931  
  19 C       3.4994840    2.7935406 *  2.8703540 *  2.1915067 *  7.5633082  
  20 C       2.1861636 *  2.2018600 *  2.2037325 *  2.7911544 *  8.6712255  
  21 C       2.8087915 *  3.5232422    2.8166191 *  3.6768932    8.5149135  
  22 C       1.1085635 *  1.1084108 *  1.1099648 *  4.0321711    9.1472879  
  23 C       4.5807007    3.7502219    4.2169580    1.0988531 *  7.9042930  
  24 C       5.8448018    4.8313827    5.2119622    2.1365541 *  7.1654785  
  25 N       7.0148709    6.0096075    6.5845693    2.6081517 *  7.9984793  
  26 O       8.1167718    7.0729450    7.5307972    3.8162070    7.6070175  
  27 O       6.9806341    6.0499312    6.8603319    2.3401996 *  9.1946745  
  28 C       9.1980654    8.3853170    7.7325048    7.2325207    2.1415786 *
  29 N      10.1789541    9.1766606    8.6640210    8.1383895    2.5984169 *
  30 O      10.9556123    9.8903500    9.5295519    8.4412125    3.5957401  
  31 O      10.3296403    9.2951314    8.7117009    8.7740555    2.5624874 *
  32 C       9.3339347    8.7330198    7.8080415    7.9205337    1.0986385 *
  33 H      11.1268149   10.8303658    9.5785561   10.3964531    2.2951351 *
  34 H      11.2434097   11.0786329    9.8653270   10.1032786    3.2519418  
  35 H      11.1546265   11.1447524    9.7311510   10.7745771    3.8638754  
  36 H       8.9838547    9.0553892    7.7010621    8.4583376    3.8350409  
  37 H       9.1302398    9.2068284    7.6476524    9.6525914    4.1165940  
  38 H       9.0201182    8.7456704    7.3773558    9.1478851    2.6980517 *
  39 H       7.5290157    7.4815641    6.0005124    7.9323131    3.7818109  
  40 H       7.6492244    7.5918959    6.5459436    6.2842557    4.3536684  
  41 H       3.8632980    3.2429726    2.2934445 *  4.3582862    6.2914323  
  42 H       2.4855929 *  2.5290091 *  3.0995938    2.3663590 *  9.5716106  
  43 H       3.8214785    4.3788700    3.8408851    3.3993886    8.4157695  
  44 H       3.1929180    3.8404421    2.6367190 *  4.4123014    7.7379620  
  45 H       2.6010845 *  3.8251333    3.1497256    4.4187695    9.4914596  
  46 H       0.0000000    1.7943683 *  1.7842141 *  4.7056766   10.0873499  
  47 H       1.7943683 *  0.0000000    1.7937467 *  4.0394245    9.4681619  
  48 H       1.7842141 *  1.7937467 *  0.0000000    4.7497510    8.4837669  
  49 H       4.7056766    4.0394245    4.7497510    0.0000000    8.9252588  
  50 H      10.0873499    9.4681619    8.4837669    8.9252588    0.0000000  

  * ... LESS THAN  3.000


     ATOMIC BASIS SET
     ----------------
 THE CONTRACTED PRIMITIVE FUNCTIONS HAVE BEEN UNNORMALIZED
 THE CONTRACTED BASIS FUNCTIONS ARE NOW NORMALIZED TO UNITY

  SHELL TYPE  PRIMITIVE        EXPONENT          CONTRACTION COEFFICIENT(S)

 C         

      1   S       1          3047.5248800    0.001834737132
      1   S       2           457.3695180    0.014037322813
      1   S       3           103.9486850    0.068842622264
      1   S       4            29.2101553    0.232184443216
      1   S       5             9.2866630    0.467941348435
      1   S       6             3.1639270    0.362311985337

      2   L       7             7.8682723   -0.119332419775    0.068999066591
      2   L       8             1.8812885   -0.160854151696    0.316423960957
      2   L       9             0.5442493    1.143456437840    0.744308290898

      3   L      10             0.1687145    1.000000000000    1.000000000000

      4   D      11             0.8000000    1.000000000000

 C         

      5   S      12          3047.5248800    0.001834737132
      5   S      13           457.3695180    0.014037322813
      5   S      14           103.9486850    0.068842622264
      5   S      15            29.2101553    0.232184443216
      5   S      16             9.2866630    0.467941348435
      5   S      17             3.1639270    0.362311985337

      6   L      18             7.8682723   -0.119332419775    0.068999066591
      6   L      19             1.8812885   -0.160854151696    0.316423960957
      6   L      20             0.5442493    1.143456437840    0.744308290898

      7   L      21             0.1687145    1.000000000000    1.000000000000

      8   D      22             0.8000000    1.000000000000

 C         

      9   S      23          3047.5248800    0.001834737132
      9   S      24           457.3695180    0.014037322813
      9   S      25           103.9486850    0.068842622264
      9   S      26            29.2101553    0.232184443216
      9   S      27             9.2866630    0.467941348435
      9   S      28             3.1639270    0.362311985337

     10   L      29             7.8682723   -0.119332419775    0.068999066591
     10   L      30             1.8812885   -0.160854151696    0.316423960957
     10   L      31             0.5442493    1.143456437840    0.744308290898

     11   L      32             0.1687145    1.000000000000    1.000000000000

     12   D      33             0.8000000    1.000000000000

 C         

     13   S      34          3047.5248800    0.001834737132
     13   S      35           457.3695180    0.014037322813
     13   S      36           103.9486850    0.068842622264
     13   S      37            29.2101553    0.232184443216
     13   S      38             9.2866630    0.467941348435
     13   S      39             3.1639270    0.362311985337

     14   L      40             7.8682723   -0.119332419775    0.068999066591
     14   L      41             1.8812885   -0.160854151696    0.316423960957
     14   L      42             0.5442493    1.143456437840    0.744308290898

     15   L      43             0.1687145    1.000000000000    1.000000000000

     16   D      44             0.8000000    1.000000000000

 C         

     17   S      45          3047.5248800    0.001834737132
     17   S      46           457.3695180    0.014037322813
     17   S      47           103.9486850    0.068842622264
     17   S      48            29.2101553    0.232184443216
     17   S      49             9.2866630    0.467941348435
     17   S      50             3.1639270    0.362311985337

     18   L      51             7.8682723   -0.119332419775    0.068999066591
     18   L      52             1.8812885   -0.160854151696    0.316423960957
     18   L      53             0.5442493    1.143456437840    0.744308290898

     19   L      54             0.1687145    1.000000000000    1.000000000000

     20   D      55             0.8000000    1.000000000000

 C         

     21   S      56          3047.5248800    0.001834737132
     21   S      57           457.3695180    0.014037322813
     21   S      58           103.9486850    0.068842622264
     21   S      59            29.2101553    0.232184443216
     21   S      60             9.2866630    0.467941348435
     21   S      61             3.1639270    0.362311985337

     22   L      62             7.8682723   -0.119332419775    0.068999066591
     22   L      63             1.8812885   -0.160854151696    0.316423960957
     22   L      64             0.5442493    1.143456437840    0.744308290898

     23   L      65             0.1687145    1.000000000000    1.000000000000

     24   D      66             0.8000000    1.000000000000

 N         

     25   S      67          4173.5114600    0.001834772160
     25   S      68           627.4579110    0.013994627002
     25   S      69           142.9020930    0.068586551812
     25   S      70            40.2343293    0.232240873040
     25   S      71            12.8202129    0.469069948082
     25   S      72             4.3904370    0.360455199063

     26   L      73            11.6263619   -0.114961181702    0.067579743878
     26   L      74             2.7162798   -0.169117478561    0.323907295893
     26   L      75             0.7722184    1.145851947027    0.740895139755

     27   L      76             0.2120315    1.000000000000    1.000000000000

     28   D      77             0.8000000    1.000000000000

 O         

     29   S      78          5484.6716600    0.001831074430
     29   S      79           825.2349460    0.013950172200
     29   S      80           188.0469580    0.068445078098
     29   S      81            52.9645000    0.232714335992
     29   S      82            16.8975704    0.470192897984
     29   S      83             5.7996353    0.358520852987

     30   L      84            15.5396162   -0.110777549525    0.070874268231
     30   L      85             3.5999336   -0.148026262701    0.339752839147
     30   L      86             1.0137618    1.130767015354    0.727158577316

     31   L      87             0.2700058    1.000000000000    1.000000000000

     32   D      88             0.8000000    1.000000000000

 O         

     33   S      89          5484.6716600    0.001831074430
     33   S      90           825.2349460    0.013950172200
     33   S      91           188.0469580    0.068445078098
     33   S      92            52.9645000    0.232714335992
     33   S      93            16.8975704    0.470192897984
     33   S      94             5.7996353    0.358520852987

     34   L      95            15.5396162   -0.110777549525    0.070874268231
     34   L      96             3.5999336   -0.148026262701    0.339752839147
     34   L      97             1.0137618    1.130767015354    0.727158577316

     35   L      98             0.2700058    1.000000000000    1.000000000000

     36   D      99             0.8000000    1.000000000000

 C         

     37   S     100          3047.5248800    0.001834737132
     37   S     101           457.3695180    0.014037322813
     37   S     102           103.9486850    0.068842622264
     37   S     103            29.2101553    0.232184443216
     37   S     104             9.2866630    0.467941348435
     37   S     105             3.1639270    0.362311985337

     38   L     106             7.8682723   -0.119332419775    0.068999066591
     38   L     107             1.8812885   -0.160854151696    0.316423960957
     38   L     108             0.5442493    1.143456437840    0.744308290898

     39   L     109             0.1687145    1.000000000000    1.000000000000

     40   D     110             0.8000000    1.000000000000

 N         

     41   S     111          4173.5114600    0.001834772160
     41   S     112           627.4579110    0.013994627002
     41   S     113           142.9020930    0.068586551812
     41   S     114            40.2343293    0.232240873040
     41   S     115            12.8202129    0.469069948082
     41   S     116             4.3904370    0.360455199063

     42   L     117            11.6263619   -0.114961181702    0.067579743878
     42   L     118             2.7162798   -0.169117478561    0.323907295893
     42   L     119             0.7722184    1.145851947027    0.740895139755

     43   L     120             0.2120315    1.000000000000    1.000000000000

     44   D     121             0.8000000    1.000000000000

 N         

     45   S     122          4173.5114600    0.001834772160
     45   S     123           627.4579110    0.013994627002
     45   S     124           142.9020930    0.068586551812
     45   S     125            40.2343293    0.232240873040
     45   S     126            12.8202129    0.469069948082
     45   S     127             4.3904370    0.360455199063

     46   L     128            11.6263619   -0.114961181702    0.067579743878
     46   L     129             2.7162798   -0.169117478561    0.323907295893
     46   L     130             0.7722184    1.145851947027    0.740895139755

     47   L     131             0.2120315    1.000000000000    1.000000000000

     48   D     132             0.8000000    1.000000000000

 C         

     49   S     133          3047.5248800    0.001834737132
     49   S     134           457.3695180    0.014037322813
     49   S     135           103.9486850    0.068842622264
     49   S     136            29.2101553    0.232184443216
     49   S     137             9.2866630    0.467941348435
     49   S     138             3.1639270    0.362311985337

     50   L     139             7.8682723   -0.119332419775    0.068999066591
     50   L     140             1.8812885   -0.160854151696    0.316423960957
     50   L     141             0.5442493    1.143456437840    0.744308290898

     51   L     142             0.1687145    1.000000000000    1.000000000000

     52   D     143             0.8000000    1.000000000000

 C         

     53   S     144          3047.5248800    0.001834737132
     53   S     145           457.3695180    0.014037322813
     53   S     146           103.9486850    0.068842622264
     53   S     147            29.2101553    0.232184443216
     53   S     148             9.2866630    0.467941348435
     53   S     149             3.1639270    0.362311985337

     54   L     150             7.8682723   -0.119332419775    0.068999066591
     54   L     151             1.8812885   -0.160854151696    0.316423960957
     54   L     152             0.5442493    1.143456437840    0.744308290898

     55   L     153             0.1687145    1.000000000000    1.000000000000

     56   D     154             0.8000000    1.000000000000

 N         

     57   S     155          4173.5114600    0.001834772160
     57   S     156           627.4579110    0.013994627002
     57   S     157           142.9020930    0.068586551812
     57   S     158            40.2343293    0.232240873040
     57   S     159            12.8202129    0.469069948082
     57   S     160             4.3904370    0.360455199063

     58   L     161            11.6263619   -0.114961181702    0.067579743878
     58   L     162             2.7162798   -0.169117478561    0.323907295893
     58   L     163             0.7722184    1.145851947027    0.740895139755

     59   L     164             0.2120315    1.000000000000    1.000000000000

     60   D     165             0.8000000    1.000000000000

 O         

     61   S     166          5484.6716600    0.001831074430
     61   S     167           825.2349460    0.013950172200
     61   S     168           188.0469580    0.068445078098
     61   S     169            52.9645000    0.232714335992
     61   S     170            16.8975704    0.470192897984
     61   S     171             5.7996353    0.358520852987

     62   L     172            15.5396162   -0.110777549525    0.070874268231
     62   L     173             3.5999336   -0.148026262701    0.339752839147
     62   L     174             1.0137618    1.130767015354    0.727158577316

     63   L     175             0.2700058    1.000000000000    1.000000000000

     64   D     176             0.8000000    1.000000000000

 O         

     65   S     177          5484.6716600    0.001831074430
     65   S     178           825.2349460    0.013950172200
     65   S     179           188.0469580    0.068445078098
     65   S     180            52.9645000    0.232714335992
     65   S     181            16.8975704    0.470192897984
     65   S     182             5.7996353    0.358520852987

     66   L     183            15.5396162   -0.110777549525    0.070874268231
     66   L     184             3.5999336   -0.148026262701    0.339752839147
     66   L     185             1.0137618    1.130767015354    0.727158577316

     67   L     186             0.2700058    1.000000000000    1.000000000000

     68   D     187             0.8000000    1.000000000000

 C         

     69   S     188          3047.5248800    0.001834737132
     69   S     189           457.3695180    0.014037322813
     69   S     190           103.9486850    0.068842622264
     69   S     191            29.2101553    0.232184443216
     69   S     192             9.2866630    0.467941348435
     69   S     193             3.1639270    0.362311985337

     70   L     194             7.8682723   -0.119332419775    0.068999066591
     70   L     195             1.8812885   -0.160854151696    0.316423960957
     70   L     196             0.5442493    1.143456437840    0.744308290898

     71   L     197             0.1687145    1.000000000000    1.000000000000

     72   D     198             0.8000000    1.000000000000

 C         

     73   S     199          3047.5248800    0.001834737132
     73   S     200           457.3695180    0.014037322813
     73   S     201           103.9486850    0.068842622264
     73   S     202            29.2101553    0.232184443216
     73   S     203             9.2866630    0.467941348435
     73   S     204             3.1639270    0.362311985337

     74   L     205             7.8682723   -0.119332419775    0.068999066591
     74   L     206             1.8812885   -0.160854151696    0.316423960957
     74   L     207             0.5442493    1.143456437840    0.744308290898

     75   L     208             0.1687145    1.000000000000    1.000000000000

     76   D     209             0.8000000    1.000000000000

 C         

     77   S     210          3047.5248800    0.001834737132
     77   S     211           457.3695180    0.014037322813
     77   S     212           103.9486850    0.068842622264
     77   S     213            29.2101553    0.232184443216
     77   S     214             9.2866630    0.467941348435
     77   S     215             3.1639270    0.362311985337

     78   L     216             7.8682723   -0.119332419775    0.068999066591
     78   L     217             1.8812885   -0.160854151696    0.316423960957
     78   L     218             0.5442493    1.143456437840    0.744308290898

     79   L     219             0.1687145    1.000000000000    1.000000000000

     80   D     220             0.8000000    1.000000000000

 C         

     81   S     221          3047.5248800    0.001834737132
     81   S     222           457.3695180    0.014037322813
     81   S     223           103.9486850    0.068842622264
     81   S     224            29.2101553    0.232184443216
     81   S     225             9.2866630    0.467941348435
     81   S     226             3.1639270    0.362311985337

     82   L     227             7.8682723   -0.119332419775    0.068999066591
     82   L     228             1.8812885   -0.160854151696    0.316423960957
     82   L     229             0.5442493    1.143456437840    0.744308290898

     83   L     230             0.1687145    1.000000000000    1.000000000000

     84   D     231             0.8000000    1.000000000000

 C         

     85   S     232          3047.5248800    0.001834737132
     85   S     233           457.3695180    0.014037322813
     85   S     234           103.9486850    0.068842622264
     85   S     235            29.2101553    0.232184443216
     85   S     236             9.2866630    0.467941348435
     85   S     237             3.1639270    0.362311985337

     86   L     238             7.8682723   -0.119332419775    0.068999066591
     86   L     239             1.8812885   -0.160854151696    0.316423960957
     86   L     240             0.5442493    1.143456437840    0.744308290898

     87   L     241             0.1687145    1.000000000000    1.000000000000

     88   D     242             0.8000000    1.000000000000

 C         

     89   S     243          3047.5248800    0.001834737132
     89   S     244           457.3695180    0.014037322813
     89   S     245           103.9486850    0.068842622264
     89   S     246            29.2101553    0.232184443216
     89   S     247             9.2866630    0.467941348435
     89   S     248             3.1639270    0.362311985337

     90   L     249             7.8682723   -0.119332419775    0.068999066591
     90   L     250             1.8812885   -0.160854151696    0.316423960957
     90   L     251             0.5442493    1.143456437840    0.744308290898

     91   L     252             0.1687145    1.000000000000    1.000000000000

     92   D     253             0.8000000    1.000000000000

 C         

     93   S     254          3047.5248800    0.001834737132
     93   S     255           457.3695180    0.014037322813
     93   S     256           103.9486850    0.068842622264
     93   S     257            29.2101553    0.232184443216
     93   S     258             9.2866630    0.467941348435
     93   S     259             3.1639270    0.362311985337

     94   L     260             7.8682723   -0.119332419775    0.068999066591
     94   L     261             1.8812885   -0.160854151696    0.316423960957
     94   L     262             0.5442493    1.143456437840    0.744308290898

     95   L     263             0.1687145    1.000000000000    1.000000000000

     96   D     264             0.8000000    1.000000000000

 N         

     97   S     265          4173.5114600    0.001834772160
     97   S     266           627.4579110    0.013994627002
     97   S     267           142.9020930    0.068586551812
     97   S     268            40.2343293    0.232240873040
     97   S     269            12.8202129    0.469069948082
     97   S     270             4.3904370    0.360455199063

     98   L     271            11.6263619   -0.114961181702    0.067579743878
     98   L     272             2.7162798   -0.169117478561    0.323907295893
     98   L     273             0.7722184    1.145851947027    0.740895139755

     99   L     274             0.2120315    1.000000000000    1.000000000000

    100   D     275             0.8000000    1.000000000000

 O         

    101   S     276          5484.6716600    0.001831074430
    101   S     277           825.2349460    0.013950172200
    101   S     278           188.0469580    0.068445078098
    101   S     279            52.9645000    0.232714335992
    101   S     280            16.8975704    0.470192897984
    101   S     281             5.7996353    0.358520852987

    102   L     282            15.5396162   -0.110777549525    0.070874268231
    102   L     283             3.5999336   -0.148026262701    0.339752839147
    102   L     284             1.0137618    1.130767015354    0.727158577316

    103   L     285             0.2700058    1.000000000000    1.000000000000

    104   D     286             0.8000000    1.000000000000

 O         

    105   S     287          5484.6716600    0.001831074430
    105   S     288           825.2349460    0.013950172200
    105   S     289           188.0469580    0.068445078098
    105   S     290            52.9645000    0.232714335992
    105   S     291            16.8975704    0.470192897984
    105   S     292             5.7996353    0.358520852987

    106   L     293            15.5396162   -0.110777549525    0.070874268231
    106   L     294             3.5999336   -0.148026262701    0.339752839147
    106   L     295             1.0137618    1.130767015354    0.727158577316

    107   L     296             0.2700058    1.000000000000    1.000000000000

    108   D     297             0.8000000    1.000000000000

 C         

    109   S     298          3047.5248800    0.001834737132
    109   S     299           457.3695180    0.014037322813
    109   S     300           103.9486850    0.068842622264
    109   S     301            29.2101553    0.232184443216
    109   S     302             9.2866630    0.467941348435
    109   S     303             3.1639270    0.362311985337

    110   L     304             7.8682723   -0.119332419775    0.068999066591
    110   L     305             1.8812885   -0.160854151696    0.316423960957
    110   L     306             0.5442493    1.143456437840    0.744308290898

    111   L     307             0.1687145    1.000000000000    1.000000000000

    112   D     308             0.8000000    1.000000000000

 N         

    113   S     309          4173.5114600    0.001834772160
    113   S     310           627.4579110    0.013994627002
    113   S     311           142.9020930    0.068586551812
    113   S     312            40.2343293    0.232240873040
    113   S     313            12.8202129    0.469069948082
    113   S     314             4.3904370    0.360455199063

    114   L     315            11.6263619   -0.114961181702    0.067579743878
    114   L     316             2.7162798   -0.169117478561    0.323907295893
    114   L     317             0.7722184    1.145851947027    0.740895139755

    115   L     318             0.2120315    1.000000000000    1.000000000000

    116   D     319             0.8000000    1.000000000000

 O         

    117   S     320          5484.6716600    0.001831074430
    117   S     321           825.2349460    0.013950172200
    117   S     322           188.0469580    0.068445078098
    117   S     323            52.9645000    0.232714335992
    117   S     324            16.8975704    0.470192897984
    117   S     325             5.7996353    0.358520852987

    118   L     326            15.5396162   -0.110777549525    0.070874268231
    118   L     327             3.5999336   -0.148026262701    0.339752839147
    118   L     328             1.0137618    1.130767015354    0.727158577316

    119   L     329             0.2700058    1.000000000000    1.000000000000

    120   D     330             0.8000000    1.000000000000

 O         

    121   S     331          5484.6716600    0.001831074430
    121   S     332           825.2349460    0.013950172200
    121   S     333           188.0469580    0.068445078098
    121   S     334            52.9645000    0.232714335992
    121   S     335            16.8975704    0.470192897984
    121   S     336             5.7996353    0.358520852987

    122   L     337            15.5396162   -0.110777549525    0.070874268231
    122   L     338             3.5999336   -0.148026262701    0.339752839147
    122   L     339             1.0137618    1.130767015354    0.727158577316

    123   L     340             0.2700058    1.000000000000    1.000000000000

    124   D     341             0.8000000    1.000000000000

 C         

    125   S     342          3047.5248800    0.001834737132
    125   S     343           457.3695180    0.014037322813
    125   S     344           103.9486850    0.068842622264
    125   S     345            29.2101553    0.232184443216
    125   S     346             9.2866630    0.467941348435
    125   S     347             3.1639270    0.362311985337

    126   L     348             7.8682723   -0.119332419775    0.068999066591
    126   L     349             1.8812885   -0.160854151696    0.316423960957
    126   L     350             0.5442493    1.143456437840    0.744308290898

    127   L     351             0.1687145    1.000000000000    1.000000000000

    128   D     352             0.8000000    1.000000000000

 H         

    129   S     353            18.7311370    0.033494604338
    129   S     354             2.8253944    0.234726953484
    129   S     355             0.6401217    0.813757326146

    130   S     356             0.1612778    1.000000000000

 H         

    131   S     357            18.7311370    0.033494604338
    131   S     358             2.8253944    0.234726953484
    131   S     359             0.6401217    0.813757326146

    132   S     360             0.1612778    1.000000000000

 H         

    133   S     361            18.7311370    0.033494604338
    133   S     362             2.8253944    0.234726953484
    133   S     363             0.6401217    0.813757326146

    134   S     364             0.1612778    1.000000000000

 H         

    135   S     365            18.7311370    0.033494604338
    135   S     366             2.8253944    0.234726953484
    135   S     367             0.6401217    0.813757326146

    136   S     368             0.1612778    1.000000000000

 H         

    137   S     369            18.7311370    0.033494604338
    137   S     370             2.8253944    0.234726953484
    137   S     371             0.6401217    0.813757326146

    138   S     372             0.1612778    1.000000000000

 H         

    139   S     373            18.7311370    0.033494604338
    139   S     374             2.8253944    0.234726953484
    139   S     375             0.6401217    0.813757326146

    140   S     376             0.1612778    1.000000000000

 H         

    141   S     377            18.7311370    0.033494604338
    141   S     378             2.8253944    0.234726953484
    141   S     379             0.6401217    0.813757326146

    142   S     380             0.1612778    1.000000000000

 H         

    143   S     381            18.7311370    0.033494604338
    143   S     382             2.8253944    0.234726953484
    143   S     383             0.6401217    0.813757326146

    144   S     384             0.1612778    1.000000000000

 H         

    145   S     385            18.7311370    0.033494604338
    145   S     386             2.8253944    0.234726953484
    145   S     387             0.6401217    0.813757326146

    146   S     388             0.1612778    1.000000000000

 H         

    147   S     389            18.7311370    0.033494604338
    147   S     390             2.8253944    0.234726953484
[...]
   29 N                 3.735       3.733       0.002
   30 O                 1.837       1.808       0.030
   31 O                 1.834       1.811       0.024
   32 C                 3.868       3.849       0.020
   33 H                 0.938       0.938       0.000
   34 H                 0.936       0.936       0.000
   35 H                 0.937       0.937       0.000
   36 H                 0.930       0.930       0.000
   37 H                 0.937       0.937       0.000
   38 H                 0.938       0.938       0.000
   39 H                 0.937       0.937       0.000
   40 H                 0.932       0.932       0.000
   41 H                 0.932       0.932       0.000
   42 H                 0.928       0.928       0.000
   43 H                 0.935       0.935       0.000
   44 H                 0.939       0.939       0.000
   45 H                 0.937       0.937       0.000
   46 H                 0.936       0.936       0.000
   47 H                 0.936       0.936       0.000
   48 H                 0.939       0.939       0.000
   49 H                 0.930       0.930       0.000
   50 H                 0.930       0.930       0.000

          -----------------------------------------
          ATOMIC SPIN DENSITY AT THE NUCLEUS (A.U.)
          -----------------------------------------
                            SPIN DENS    ALPHA DENS     BETA DENS
    1  C            6.0     0.0047756      58.87725      58.87248
    2  C            6.0    -0.0077280      58.87179      58.87951
    3  C            6.0     0.0082882      58.88359      58.87530
    4  C            6.0     0.0368889      58.96117      58.92428
    5  C            6.0    -0.0296648      58.92475      58.95441
    6  C            6.0     0.0505426      58.93270      58.88216
    7  N            7.0    -0.0135512      95.47736      95.49091
    8  O            8.0    -0.0015284     145.40910     145.41063
    9  O            8.0     0.0057041     145.44488     145.43917
   10  C            6.0     0.0366899      58.91007      58.87338
   11  N            7.0     0.6214676      95.82453      95.20307
   12  N            7.0     0.7002811      95.84336      95.14308
   13  C            6.0     0.0151855      58.90638      58.89120
   14  C            6.0     0.0583522      58.93894      58.88059
   15  N            7.0    -0.0116721      95.46765      95.47932
   16  O            8.0    -0.0285347     145.41917     145.44770
   17  O            8.0     0.0323408     145.42997     145.39763
   18  C            6.0    -0.0323965      58.92316      58.95555
   19  C            6.0     0.0377522      58.96528      58.92753
   20  C            6.0    -0.0078492      58.87154      58.87939
   21  C            6.0     0.0088512      58.88353      58.87468
   22  C            6.0     0.0046215      58.87693      58.87231
   23  C            6.0    -0.0329968      58.92943      58.96243
   24  C            6.0     0.0452123      58.93525      58.89003
   25  N            7.0    -0.0192916      95.43995      95.45924
   26  O            8.0     0.0601163     145.47611     145.41599
   27  O            8.0    -0.0350334     145.38853     145.42356
   28  C            6.0     0.0450026      58.93658      58.89158
   29  N            7.0    -0.0113939      95.45001      95.46140
   30  O            8.0     0.0372022     145.44459     145.40739
   31  O            8.0    -0.0303060     145.40316     145.43347
   32  C            6.0    -0.0310919      58.92203      58.95312
   33  H            1.0    -0.0001526       0.20904       0.20920
   34  H            1.0    -0.0001664       0.20808       0.20825
   35  H            1.0     0.0001684       0.20823       0.20806
   36  H            1.0     0.0005489       0.21307       0.21252
   37  H            1.0     0.0005408       0.20869       0.20815
   38  H            1.0    -0.0002559       0.20802       0.20828
   39  H            1.0    -0.0001556       0.20819       0.20834
   40  H            1.0     0.0045227       0.20815       0.20363
   41  H            1.0     0.0048469       0.20861       0.20376
   42  H            1.0     0.0005874       0.21270       0.21211
   43  H            1.0    -0.0001773       0.20766       0.20784
   44  H            1.0    -0.0002681       0.20836       0.20863
   45  H            1.0     0.0006522       0.20846       0.20780
   46  H            1.0     0.0002042       0.20803       0.20783
   47  H            1.0    -0.0001718       0.20801       0.20818
   48  H            1.0    -0.0001500       0.20915       0.20930
   49  H            1.0     0.0042500       0.20675       0.20250
   50  H            1.0     0.0039933       0.20859       0.20460

          ---------------------
          ELECTROSTATIC MOMENTS
          ---------------------

 POINT   1           X           Y           Z (BOHR)    CHARGE
                -0.006574    1.236737   -1.148982        0.00 (A.U.)
         DX          DY          DZ         /D/  (DEBYE)
    -1.155561   -6.512812    6.493846    9.269416
 ...... END OF PROPERTY EVALUATION ......
 CPU     0: STEP CPU TIME=     0.69 TOTAL CPU TIME=        804.5 (     13.4 MIN)
 TOTAL WALL CLOCK TIME=       1758.8 SECONDS, CPU UTILIZATION IS    45.74%

 -----------------------------------------------------------------------
                    SFDFT CALCULATION FOR SCFTYP=UHF 
                          CODED BY NORIYUKI MINEZAWA
 -----------------------------------------------------------------------
  
 -TDDFT RUNTIME PARAMETERS-
    TRIPLET  = F
    NONEQ    = T
    NSTATE   =                    3
    IROOT    =                    1
    NTRIAL   =                    5
    MAXVEC   =                   50
    ILENG    =                  200
    MAXGRD   =               203099
    NRAD     =                   48
    NLEB     =                  110
 GAS PHASE COMPUTATION
  
 FOR AN EULER-MACLAURIN QUADRATURE USING  48 RADIAL POINTS:
 SMALLEST GAUSSIAN PRIMITIVE EXPONENT=        0.1612777588 OF TYPE -S-
 ON ATOM NUMBER  33 HAS RADIAL NORMALIZATION=  1.000000
  LARGEST GAUSSIAN PRIMITIVE EXPONENT=     5484.6716600000 OF TYPE -S-
 ON ATOM NUMBER   8 HAS RADIAL NORMALIZATION=  1.000000
  

          -----------------------------------------------
          SF-DFT INPUT PARAMETERS (EXTRACTED FROM $TDDFT)
          -----------------------------------------------

     NSTATE=       3  IROOT=       1 MAXVEC=      50
     NTRIAL=       5 CNVTOL=  1.00E-07

     ********** NOTE: THE CURRENT STATUS OF SFDFT **********

     (1) UHF AND ROHF REFERENCES ARE AVAILABLE.
     (2) COLLINEAR APPROXIMATION FOR XC FUNCTIONALS.
     (3) NEITHER LC NOR CAMB3LYP IS SUPPORTED.
     (4) INCORRECT ANALYTIC GRADIENT FOR META-GGA.
     (5) SOLVENT MODELS (EFP1 AND/OR C-PCM) ARE AVAILABLE.

     *******************************************************

 MEMORY REQUIRED FOR SFDFT   ITERATIONS IS  20223187 WORDS.


 STATE      ITERATION      ENERGY         RESIDUE NORM
   1            1    -1617.4252260821     0.08018576
   2            1    -1617.3190960798     0.05543607
   3            1    -1617.3022144958     0.02903084

 STATE      ITERATION      ENERGY         RESIDUE NORM
   1            2    -1617.4462204146     0.01563521
   2            2    -1617.3503619062     0.04591973
   3            2    -1617.3079686981     0.01971760

 STATE      ITERATION      ENERGY         RESIDUE NORM
   1            3    -1617.4468122283     0.00371346
   2            3    -1617.3592015182     0.01917773
   3            3    -1617.3104403491     0.01687551

 STATE      ITERATION      ENERGY         RESIDUE NORM
   1            4    -1617.4468437043     0.00099655
   2            4    -1617.3619357871     0.01984005
   3            4    -1617.3213612287     0.06868853

 STATE      ITERATION      ENERGY         RESIDUE NORM
   1            5    -1617.4468453275     0.00021677
   2            5    -1617.3637996833     0.01312276
   3            5    -1617.3399315558     0.03508877

 STATE      ITERATION      ENERGY         RESIDUE NORM
   1            6    -1617.4468454071     0.00004804
   2            6    -1617.3642686618     0.00444621
   3            6    -1617.3433075411     0.01201419

 STATE      ITERATION      ENERGY         RESIDUE NORM
   1            7    -1617.4468454101     0.00000934
   2            7    -1617.3643113562     0.00124000
   3            7    -1617.3436451957     0.00371792

 STATE      ITERATION      ENERGY         RESIDUE NORM
   1            8    -1617.4468454102     0.00000255
   2            8    -1617.3643144991     0.00040193
   3            8    -1617.3436786888     0.00150196

 STATE      ITERATION      ENERGY         RESIDUE NORM
   1            9    -1617.4468454102     0.00000057
   2            9    -1617.3643148577     0.00011831
   3            9    -1617.3436846432     0.00053167

 STATE      ITERATION      ENERGY         RESIDUE NORM
   1           10    -1617.4468454102     0.00000011
   2           10    -1617.3643148899     0.00004498
   3           10    -1617.3436853669     0.00022681

 STATE      ITERATION      ENERGY         RESIDUE NORM
   1           11    -1617.4468454102     0.00000002
   2           11    -1617.3643148941     0.00001694
   3           11    -1617.3436854865     0.00009653

 STATE      ITERATION      ENERGY         RESIDUE NORM
   1           12    -1617.4468454102     0.00000000
   2           12    -1617.3643148946     0.00000584
   3           12    -1617.3436855036     0.00003910

 STATE      ITERATION      ENERGY         RESIDUE NORM
   1           13    -1617.4468454102     0.00000000
   2           13    -1617.3643148946     0.00000217
   3           13    -1617.3436855065     0.00001825

 STATE      ITERATION      ENERGY         RESIDUE NORM
   1           14    -1617.4468454102     0.00000000
   2           14    -1617.3643148946     0.00000078
   3           14    -1617.3436855070     0.00000719

 STATE      ITERATION      ENERGY         RESIDUE NORM
   1           15    -1617.4468454102     0.00000000
   2           15    -1617.3643148946     0.00000028
   3           15    -1617.3436855071     0.00000287

 STATE      ITERATION      ENERGY         RESIDUE NORM
   1           16    -1617.4468454102     0.00000000
   2           16    -1617.3643148946     0.00000008
   3           16    -1617.3436855071     0.00000094

 STATE      ITERATION      ENERGY         RESIDUE NORM
   1           17    -1617.4468454102     0.00000000
   2           17    -1617.3643148946     0.00000002
   3           17    -1617.3436855071     0.00000028

 STATE      ITERATION      ENERGY         RESIDUE NORM
   1           18    -1617.4468454102     0.00000000
   2           18    -1617.3643148946     0.00000001
   3           18    -1617.3436855071     0.00000012

 STATE      ITERATION      ENERGY         RESIDUE NORM
   1           19    -1617.4468454102     0.00000000
   2           19    -1617.3643148946     0.00000000
   3           19    -1617.3436855071     0.00000005
  
   -----------------------------------  
     SPIN-FLIP CALCULATION CONVERGED
   -----------------------------------  
 NUMBER OF USED VECTORS / MAX =  53 / 150
 NUMBER OF ITERATIONS   / MAX =  19 / 100
 NUMBER OF SINGLE EXCITATIONS = 46917
 NUMBER OF ATOMIC ORBITALS    = 516

     -----------------------------------
     ALPHA -> BETA SPIN-FLIP EXCITATIONS
     -----------------------------------

 STATE #   1  ENERGY =   -1.002962 EV
 SYMMETRY OF STATE   =    A   
 S-SQUARED           =    0.2959
        DRF    COEF       OCC(A)    VIR(B)
        ---    ----       ------    ------
        105  0.054473       105  ->   116
        113 -0.075027       113  ->   116
        114  0.188696       114  ->   116
        115 -0.094603       115  ->   116
        116 -0.066515       116  ->   116
        117 -0.912850       117  ->   116
        351  0.069433       117  ->   118
        465 -0.065322       114  ->   119
        468  0.229292       117  ->   119
        585 -0.092502       117  ->   120
        819 -0.069414       117  ->   122

 STATE #   2  ENERGY =    1.242807 EV
 SYMMETRY OF STATE   =    A   
 S-SQUARED           =    2.3598
        DRF    COEF       OCC(A)    VIR(B)
        ---    ----       ------    ------
         93 -0.050751        93  ->   116
         97  0.108089        97  ->   116
         99 -0.146254        99  ->   116
        100  0.247898       100  ->   116
        101  0.063949       101  ->   116
        102 -0.118542       102  ->   116
        104 -0.076177       104  ->   116
        105  0.122163       105  ->   116
        106  0.052614       106  ->   116
        107  0.099536       107  ->   116
        110 -0.210228       110  ->   116
        111  0.087575       111  ->   116
        112 -0.197142       112  ->   116
        114 -0.114154       114  ->   116
        116 -0.313351       116  ->   116
        234 -0.225633       117  ->   117
        351  0.351150       117  ->   118
        451 -0.085928       100  ->   119
        461  0.054462       110  ->   119
        463  0.062899       112  ->   119
        465  0.084977       114  ->   119
        468 -0.342419       117  ->   119
        585 -0.136775       117  ->   120
        699 -0.058047       114  ->   121
        702  0.318704       117  ->   121
       1167 -0.095118       114  ->   125
       1170  0.333957       117  ->   125

 STATE #   3  ENERGY =    1.804161 EV
 SYMMETRY OF STATE   =    A   
 S-SQUARED           =    0.3706
        DRF    COEF       OCC(A)    VIR(B)
        ---    ----       ------    ------
         93 -0.053411        93  ->   116
         97  0.123994        97  ->   116
         99 -0.167831        99  ->   116
        100  0.283136       100  ->   116
        101  0.074985       101  ->   116
        102 -0.135985       102  ->   116
        104 -0.087909       104  ->   116
        105  0.146777       105  ->   116
        106  0.066262       106  ->   116
        107  0.123226       107  ->   116
        110 -0.254107       110  ->   116
        111  0.107132       111  ->   116
        112 -0.239638       112  ->   116
        114 -0.150440       114  ->   116
        116 -0.375273       116  ->   116
        234  0.223854       117  ->   117
        351 -0.359849       117  ->   118
        450  0.052824        99  ->   119
        451 -0.083988       100  ->   119
        461  0.069640       110  ->   119
        463  0.056295       112  ->   119
        467  0.096045       116  ->   119
        468  0.300446       117  ->   119
        585  0.117230       117  ->   120
        702 -0.232387       117  ->   121
       1167  0.073700       114  ->   125
       1170 -0.224198       117  ->   125

          ----------------------------
          SUMMARY OF SPIN-FLIP RESULTS
          ----------------------------

   STATE             ENERGY     EXCITATION     S-SQUARED

 1 NEGATIVE ROOT(S) FOUND.
   1  A        -1617.4468454102   -1.003        0.2959
   0  A        -1617.4099872198    0.000               (REFERENCE STATE)
   2  A        -1617.3643148946    1.243        2.3598
   3  A        -1617.3436855071    1.804        0.3706
  
 SELECTING EXCITED STATE IROOT=   1 AT E=    -1617.4468454102
 AS THE STATE OF INTEREST.

 ..... DONE WITH SFDFT   EXCITATION ENERGIES .....
 CPU     0: STEP CPU TIME=    85.50 TOTAL CPU TIME=        890.0 (     14.8 MIN)
 TOTAL WALL CLOCK TIME=       1995.3 SECONDS, CPU UTILIZATION IS    44.61%
             20223346  WORDS OF DYNAMIC MEMORY USED
 EXECUTION OF GAMESS TERMINATED NORMALLY Thu Dec 31 23:30:51 2020
 DDI: 263640 bytes (0.3 MB / 0 MWords) used by master data server.

 ----------------------------------------
 CPU timing information for all processes
 ========================================
 0: 788.260 + 101.760 = 890.20
 1: 769.37 + 90.906 = 859.943
 2: 762.540 + 91.228 = 853.769
 3: 729.223 + 72.47 = 801.270
 4: 732.519 + 69.82 = 801.601
 5: 731.737 + 70.614 = 802.352
 6: 749.473 + 81.817 = 831.290
 7: 679.913 + 58.73 = 737.986
 8: 739.860 + 70.30 = 809.891
 9: 728.963 + 68.276 = 797.239
 10: 727.747 + 67.133 = 794.880
 11: 711.604 + 73.739 = 785.344
 12: 716.654 + 67.769 = 784.423
 13: 744.870 + 84.837 = 829.707
 14: 762.816 + 87.797 = 850.614
 ----------------------------------------
 ddikick.x: exited gracefully.
----- accounting info -----
Files used on the master node holy7c02506.rc.fas.harvard.edu were:
-rw-r--r-- 1 saxelrod shakhnovich_lab       1848 Dec 31 22:57 /scratch/20201231225730260111169_energy.F05
-rw-r--r-- 1 saxelrod shakhnovich_lab 1707233808 Dec 31 22:58 /scratch/20201231225730260111169_energy.F08
-rw-r--r-- 1 saxelrod shakhnovich_lab 1601866784 Dec 31 22:58 /scratch/20201231225730260111169_energy.F08.001
-rw-r--r-- 1 saxelrod shakhnovich_lab 1593706240 Dec 31 22:58 /scratch/20201231225730260111169_energy.F08.002
-rw-r--r-- 1 saxelrod shakhnovich_lab 1637629168 Dec 31 22:58 /scratch/20201231225730260111169_energy.F08.003
-rw-r--r-- 1 saxelrod shakhnovich_lab 1675311680 Dec 31 22:58 /scratch/20201231225730260111169_energy.F08.004
-rw-r--r-- 1 saxelrod shakhnovich_lab 1659470624 Dec 31 22:58 /scratch/20201231225730260111169_energy.F08.005
-rw-r--r-- 1 saxelrod shakhnovich_lab 1661630768 Dec 31 22:58 /scratch/20201231225730260111169_energy.F08.006
-rw-r--r-- 1 saxelrod shakhnovich_lab 1302566832 Dec 31 22:58 /scratch/20201231225730260111169_energy.F08.007
-rw-r--r-- 1 saxelrod shakhnovich_lab 1683472224 Dec 31 22:58 /scratch/20201231225730260111169_energy.F08.008
-rw-r--r-- 1 saxelrod shakhnovich_lab 1647469824 Dec 31 22:58 /scratch/20201231225730260111169_energy.F08.009
-rw-r--r-- 1 saxelrod shakhnovich_lab 1637389152 Dec 31 22:58 /scratch/20201231225730260111169_energy.F08.010
-rw-r--r-- 1 saxelrod shakhnovich_lab 1393052864 Dec 31 22:58 /scratch/20201231225730260111169_energy.F08.011
-rw-r--r-- 1 saxelrod shakhnovich_lab 1606187072 Dec 31 22:58 /scratch/20201231225730260111169_energy.F08.012
-rw-r--r-- 1 saxelrod shakhnovich_lab 1623948256 Dec 31 22:58 /scratch/20201231225730260111169_energy.F08.013
-rw-r--r-- 1 saxelrod shakhnovich_lab 1610747376 Dec 31 22:58 /scratch/20201231225730260111169_energy.F08.014
-rw-r--r-- 1 saxelrod shakhnovich_lab   38347840 Dec 31 23:30 /scratch/20201231225730260111169_energy.F10
-rw-r--r-- 1 saxelrod shakhnovich_lab    8124000 Dec 31 23:26 /scratch/20201231225730260111169_energy.F22
-rw-r--r-- 1 saxelrod shakhnovich_lab    8124000 Dec 31 23:26 /scratch/20201231225730260111169_energy.F22.001
-rw-r--r-- 1 saxelrod shakhnovich_lab    8124000 Dec 31 23:26 /scratch/20201231225730260111169_energy.F22.002
-rw-r--r-- 1 saxelrod shakhnovich_lab    8124000 Dec 31 23:26 /scratch/20201231225730260111169_energy.F22.003
-rw-r--r-- 1 saxelrod shakhnovich_lab    8124000 Dec 31 23:26 /scratch/20201231225730260111169_energy.F22.004
-rw-r--r-- 1 saxelrod shakhnovich_lab    8124000 Dec 31 23:26 /scratch/20201231225730260111169_energy.F22.005
-rw-r--r-- 1 saxelrod shakhnovich_lab    8124000 Dec 31 23:26 /scratch/20201231225730260111169_energy.F22.006
-rw-r--r-- 1 saxelrod shakhnovich_lab    8124000 Dec 31 23:26 /scratch/20201231225730260111169_energy.F22.007
-rw-r--r-- 1 saxelrod shakhnovich_lab    8124000 Dec 31 23:26 /scratch/20201231225730260111169_energy.F22.008
-rw-r--r-- 1 saxelrod shakhnovich_lab    8124000 Dec 31 23:26 /scratch/20201231225730260111169_energy.F22.009
-rw-r--r-- 1 saxelrod shakhnovich_lab    8124000 Dec 31 23:26 /scratch/20201231225730260111169_energy.F22.010
-rw-r--r-- 1 saxelrod shakhnovich_lab    8124000 Dec 31 23:26 /scratch/20201231225730260111169_energy.F22.011
-rw-r--r-- 1 saxelrod shakhnovich_lab    8124000 Dec 31 23:26 /scratch/20201231225730260111169_energy.F22.012
-rw-r--r-- 1 saxelrod shakhnovich_lab    8124000 Dec 31 23:26 /scratch/20201231225730260111169_energy.F22.013
-rw-r--r-- 1 saxelrod shakhnovich_lab    8124000 Dec 31 23:26 /scratch/20201231225730260111169_energy.F22.014
Thu Dec 31 23:30:57 EST 2020
0.146u 3.069s 33:21.93 0.1%	0+0k 152+208io 1pf+0w
