----- GAMESS execution script 'rungms' -----
This job is running on host pl365-pro
under operating system Linux at mercredi 3 février 2021, 11:07:34 (UTC+0100)
Available scratch disk space (Kbyte units) at beginning of the job is
Sys. de fichiers       blocs de 1K   Utilisé Disponible Uti% Monté sur
/dev/mapper/VGsys-home   388834444 324852276   44160808  89% /home
GAMESS temporary binary files will be written to /home/rbenda/scr/rbenda
GAMESS supplementary output files will be written to /home/rbenda/scr/rbenda
Copying input file Pyridine_CU2_ion_pos1_ROHF_6-31G_1_step_print_guess_overlap.inp to your run's scratch directory...
cp Pyridine_CU2_ion_pos1_ROHF_6-31G_1_step_print_guess_overlap.inp /home/rbenda/scr/rbenda/Pyridine_CU2_ion_pos1_ROHF_6-31G_1_step_print_guess_overlap.F05
unset echo
/home/rbenda/Desktop/gamess/ddikick.x /home/rbenda/Desktop/gamess/gamess.01.x Pyridine_CU2_ion_pos1_ROHF_6-31G_1_step_print_guess_overlap -ddi 1 1 pl365-pro -scr /home/rbenda/scr/rbenda

 Distributed Data Interface kickoff program.
 Initiating 1 compute processes on 1 nodes to run the following command:
 /home/rbenda/Desktop/gamess/gamess.01.x Pyridine_CU2_ion_pos1_ROHF_6-31G_1_step_print_guess_overlap 

          ******************************************************
          *         GAMESS VERSION = 30 SEP 2018 (R3)         *
          *             FROM IOWA STATE UNIVERSITY             *
          * M.W.SCHMIDT, K.K.BALDRIDGE, J.A.BOATZ, S.T.ELBERT, *
          *   M.S.GORDON, J.H.JENSEN, S.KOSEKI, N.MATSUNAGA,   *
          *          K.A.NGUYEN, S.J.SU, T.L.WINDUS,           *
          *       TOGETHER WITH M.DUPUIS, J.A.MONTGOMERY       *
          *         J.COMPUT.CHEM.  14, 1347-1363(1993)        *
          **************** 64 BIT LINUX VERSION ****************

  SINCE 1993, STUDENTS AND POSTDOCS WORKING AT IOWA STATE UNIVERSITY
  AND ALSO IN THEIR VARIOUS JOBS AFTER LEAVING ISU HAVE MADE IMPORTANT
  CONTRIBUTIONS TO THE CODE:
     IVANA ADAMOVIC, CHRISTINE AIKENS, YURI ALEXEEV, POOJA ARORA,
     ANDREY ASADCHEV, ROB BELL, PRADIPTA BANDYOPADHYAY, JONATHAN BENTZ,
     BRETT BODE, KURT BRORSEN, CALEB CARLIN, GALINA CHABAN, WEI CHEN,
     CHEOL HO CHOI, PAUL DAY, ALBERT DEFUSCO, NUWAN DESILVA, TIM DUDLEY,
     DMITRI FEDOROV, ALEX FINDLATER, GRAHAM FLETCHER, MARK FREITAG,
     KURT GLAESEMANN, ANASTASIA GUNINA,
     DAN KEMP, GRANT MERRILL, NORIYUKI MINEZAWA, JONATHAN MULLIN,
     TAKESHI NAGATA, SEAN NEDD, HEATHER NETZLOFF, BOSILJKA NJEGIC, RYAN OLSON,
     MIKE PAK, BUU PHAM,
     SPENCER PRUITT, LUKE ROSKOP, JIM SHOEMAKER, LYUDMILA SLIPCHENKO,
     TONY SMITH, SAROM SOK LEANG, JIE SONG, TETSUYA TAKETSUGU, SIMON WEBB,
     PENG XU, SOOHAENG YOO, FEDERICO ZAHARIEV

  ADDITIONAL CODE HAS BEEN PROVIDED BY COLLABORATORS IN OTHER GROUPS:
     IOWA STATE UNIVERSITY:
          JOE IVANIC, AARON WEST, LAIMUTIS BYTAUTAS, KLAUS RUEDENBERG
     UNIVERSITY OF TOKYO: KIMIHIKO HIRAO, TAKAHITO NAKAJIMA,
          TAKAO TSUNEDA, MUNEAKI KAMIYA, SUSUMU YANAGISAWA,
          KIYOSHI YAGI, MAHITO CHIBA, SEIKEN TOKURA, NAOAKI KAWAKAMI
     UNIVERSITY OF AARHUS: FRANK JENSEN
     UNIVERSITY OF IOWA: VISVALDAS KAIRYS, HUI LI
     NATIONAL INST. OF STANDARDS AND TECHNOLOGY: WALT STEVENS, DAVID GARMER
     UNIVERSITY OF PISA: BENEDETTA MENNUCCI, JACOPO TOMASI
     UNIVERSITY OF MEMPHIS: HENRY KURTZ, PRAKASHAN KORAMBATH
     UNIVERSITY OF ALBERTA: TOBY ZENG, MARIUSZ KLOBUKOWSKI
     UNIVERSITY OF NEW ENGLAND: MARK SPACKMAN
     MIE UNIVERSITY: HIROAKI UMEDA
     NAT. INST. OF ADVANCED INDUSTRIAL SCIENCE AND TECHNOLOGY: KAZUO KITAURA
     MICHIGAN STATE UNIVERSITY:
          KAROL KOWALSKI, MARTA WLOCH, JEFFREY GOUR, JESSE LUTZ,
          WEI LI, JUN SHEN, J. EMILIANO DEUSTUA, PIOTR PIECUCH
     UNIVERSITY OF MINNESOTA:
          YINAN SHU
     UNIVERSITY OF SILESIA: MONIKA MUSIAL, STANISLAW KUCHARSKI
     FACULTES UNIVERSITAIRES NOTRE-DAME DE LA PAIX:
          OLIVIER QUINET, BENOIT CHAMPAGNE
     UNIVERSITY OF CALIFORNIA - SANTA BARBARA: BERNARD KIRTMAN
     INSTITUTE FOR MOLECULAR SCIENCE:
          KAZUYA ISHIMURA, MICHIO KATOUDA, AND SHIGERU NAGASE
     UNIVERSITY OF NOTRE DAME: ANNA POMOGAEVA, DAN CHIPMAN
     KYUSHU UNIVERSITY:
          HARUYUKI NAKANO,
          FENG LONG GU, JACEK KORCHOWIEC, MARCIN MAKOWSKI, AND YURIKO AOKI,
          HIROTOSHI MORI AND EISAKU MIYOSHI
     PENNSYLVANIA STATE UNIVERSITY:
          TZVETELIN IORDANOV, CHET SWALINA, JONATHAN SKONE,
          SHARON HAMMES-SCHIFFER
     WASEDA UNIVERSITY:
          MASATO KOBAYASHI, TOMOKO AKAMA, TSUGUKI TOUMA,
          TAKESHI YOSHIKAWA, YASUHIRO IKABATA, JUNJI SEINO,
          YUYA NAKAJIMA, HIROMI NAKAI
     NANJING UNIVERSITY: SHUHUA LI
     UNIVERSITY OF NEBRASKA:
          PEIFENG SU, DEJUN SI, NANDUN THELLAMUREGE, YALI WANG, HUI LI
     UNIVERSITY OF ZURICH: ROBERTO PEVERATI, KIM BALDRIDGE
     N. COPERNICUS UNIVERSITY AND JACKSON STATE UNIVERSITY:
          MARIA BARYSZ
     UNIVERSITY OF COPENHAGEN: Jimmy Kromann, CASPER STEINMANN
     TOKYO INSTITUTE OF TECHNOLOGY: HIROYA NAKATA
     NAGOYA UNIVERSITY: YOSHIO NISHIMOTO, STEPHAN IRLE
     MOSCOW STATE UNIVERSITY: VLADIMIR MIRONOV

 EXECUTION OF GAMESS BEGUN Wed Feb  3 11:07:34 2021

            ECHO OF THE FIRST FEW INPUT CARDS -
 INPUT CARD> $contrl scftyp=rohf icharg=2 mult=2 runtyp=energy maxit=1 nprint=3 $end        
 INPUT CARD> $system timlim=10 $end                                                         
 INPUT CARD> $guess  guess=huckel prtmo=.t. $end                                            
 INPUT CARD> $basis  gbasis=n31 ngauss=6 ndfunc=0 npfunc=0 $end                             
 INPUT CARD> $data                                                                          
 INPUT CARD>Pyridine--CU2+ ROHF/6-31G Opt. (from g09 Opt at ROHF/6-31G(d), no PCM)          
 INPUT CARD>C1                                                                              
 INPUT CARD>C 6.0 -0.79417 1.15549 -0.73004                                                 
 INPUT CARD>N 7.0 -0.77147 -0.00005 -1.40326                                                
 INPUT CARD>C 6.0 -0.75549 1.20942 0.68028                                                  
 INPUT CARD>C 6.0 -0.77590 -0.00092 1.40164                                                 
 INPUT CARD>C 6.0 -0.75376 -1.21083 0.67954                                                 
 INPUT CARD>C 6.0 -0.79232 -1.15605 -0.73072                                                
 INPUT CARD>H 1.0 -0.81077 -2.05573 -1.32099                                                
 INPUT CARD>H 1.0 -0.76947 -2.16071 1.18522                                                 
 INPUT CARD>H 1.0 -0.78710 -0.00126 2.47840                                                 
 INPUT CARD>H 1.0 -0.77279 2.15896 1.18655                                                  
 INPUT CARD>H 1.0 -0.81424 2.05551 -1.31973                                                 
 INPUT CARD>Cu 29.0 1.12360 0.00072 -0.00658                                                
 INPUT CARD> $end                                                                           
    1000000 WORDS OF MEMORY AVAILABLE

     BASIS OPTIONS
     -------------
     GBASIS=N31          IGAUSS=       6      POLAR=NONE    
     NDFUNC=       0     NFFUNC=       0     DIFFSP=       F
     NPFUNC=       0      DIFFS=       F     BASNAM=        


     RUN TITLE
     ---------
 Pyridine--CU2+ ROHF/6-31G Opt. (from g09 Opt at ROHF/6-31G(d), no PCM)          

 THE POINT GROUP OF THE MOLECULE IS C1      
 THE ORDER OF THE PRINCIPAL AXIS IS     0

 ATOM      ATOMIC                      COORDINATES (BOHR)
           CHARGE         X                   Y                   Z
 C           6.0    -1.5007636877        2.1835594816       -1.3795755601
 N           7.0    -1.4578669077       -0.0000944863       -2.6517768895
 C           6.0    -1.4276690865        2.2854724041        1.2855427949
 C           6.0    -1.4662383939       -0.0017385479        2.6487155334
 C           6.0    -1.4243998605       -2.2881369177        1.2841443977
 C           6.0    -1.4972676946       -2.1846177281       -1.3808605737
 H           1.0    -1.5321331391       -3.8847664047       -2.4963091325
 H           1.0    -1.4540874558       -4.0831498389        2.2397410352
 H           1.0    -1.4874033249       -0.0023810547        4.6834968880
 H           1.0    -1.4603613461        4.0798428185        2.2422543707
 H           1.0    -1.5386904882        3.8843506650       -2.4939280778
 CU         29.0     2.1232961198        0.0013606027       -0.0124343970

          INTERNUCLEAR DISTANCES (ANGS.)
          ------------------------------

                1 C          2 N          3 C          4 C          5 C     

   1 C       0.0000000    1.3375400 *  1.4118807 *  2.4252170 *  2.7546359 *
   2 N       1.3375400 *  0.0000000    2.4091932 *  2.8049036 *  2.4092235 *
   3 C       1.4118807 *  2.4091932 *  0.0000000    1.4091486 *  2.4202507 *
   4 C       2.4252170 *  2.8049036 *  1.4091486 *  0.0000000    1.4091844 *
   5 C       2.7546359 *  2.4092235 *  2.4202507 *  1.4091844 *  0.0000000  
   6 C       2.3115408 *  1.3375652 *  2.7545827 *  2.4251916 *  1.4118502 *
   7 H       3.2651847    2.0577009 *  3.8300577    3.4111837    2.1723781 *
   8 H       3.8296231    3.3717480    3.4077758    2.1706155 *  1.0762114 *
   9 H       3.4106023    3.8816917    2.1679439 *  1.0768183 *  2.1679641 *
  10 H       2.1634986 *  3.3717120    1.0762132 *  2.1705656 *  3.4077714  
  11 H       1.0761845 *  2.0577010 *  2.1724088 *  3.4111917    3.8301064  
  12 CU      2.3526007 *  2.3541465 *  2.3374584 *  2.3645690 *  2.3373264 *

                6 C          7 H          8 H          9 H         10 H     

   1 C       2.3115408 *  3.2651847    3.8296231    3.4106023    2.1634986 *
   2 N       1.3375652 *  2.0577009 *  3.3717480    3.8816917    3.3717120  
   3 C       2.7545827 *  3.8300577    3.4077758    2.1679439 *  1.0762132 *
   4 C       2.4251916 *  3.4111837    2.1706155 *  1.0768183 *  2.1705656 *
   5 C       1.4118502 *  2.1723781 *  1.0762114 *  2.1679641 *  3.4077714  
   6 C       0.0000000    1.0761892 *  2.1634902 *  3.4105745    3.8295688  
   7 H       1.0761892 *  0.0000000    2.5087477 *  4.3193485    4.9043665  
   8 H       2.1634902 *  2.5087477 *  0.0000000    2.5171114 *  4.3196715  
   9 H       3.4105745    4.3193485    2.5171114 *  0.0000000    2.5170681 *
  10 H       3.8295688    4.9043665    4.3196715    2.5170681 *  0.0000000  
  11 H       3.2652000    4.1112417    4.9044154    4.3193554    2.5087566 *
  12 CU      2.3522851 *  3.1142331    3.1106078    3.1346298    3.1109250  

               11 H         12 CU    

   1 C       1.0761845 *  2.3526007 *
   2 N       2.0577010 *  2.3541465 *
   3 C       2.1724088 *  2.3374584 *
   4 C       3.4111917    2.3645690 *
   5 C       3.8301064    2.3373264 *
   6 C       3.2652000    2.3522851 *
   7 H       4.1112417    3.1142331  
   8 H       4.9044154    3.1106078  
   9 H       4.3193554    3.1346298  
  10 H       2.5087566 *  3.1109250  
  11 H       0.0000000    3.1147630  
  12 CU      3.1147630    0.0000000  

  * ... LESS THAN  3.000


     ATOMIC BASIS SET
     ----------------
 THE CONTRACTED PRIMITIVE FUNCTIONS HAVE BEEN UNNORMALIZED
 THE CONTRACTED BASIS FUNCTIONS ARE NOW NORMALIZED TO UNITY

  SHELL TYPE  PRIMITIVE        EXPONENT          CONTRACTION COEFFICIENT(S)

 C         

      1   S       1          3047.5248800    0.001834737132
      1   S       2           457.3695180    0.014037322813
      1   S       3           103.9486850    0.068842622264
      1   S       4            29.2101553    0.232184443216
      1   S       5             9.2866630    0.467941348435
      1   S       6             3.1639270    0.362311985337

      2   L       7             7.8682723   -0.119332419775    0.068999066591
      2   L       8             1.8812885   -0.160854151696    0.316423960957
      2   L       9             0.5442493    1.143456437840    0.744308290898

      3   L      10             0.1687145    1.000000000000    1.000000000000

 N         

      4   S      11          4173.5114600    0.001834772160
      4   S      12           627.4579110    0.013994627002
      4   S      13           142.9020930    0.068586551812
      4   S      14            40.2343293    0.232240873040
      4   S      15            12.8202129    0.469069948082
      4   S      16             4.3904370    0.360455199063

      5   L      17            11.6263619   -0.114961181702    0.067579743878
      5   L      18             2.7162798   -0.169117478561    0.323907295893
      5   L      19             0.7722184    1.145851947027    0.740895139755

      6   L      20             0.2120315    1.000000000000    1.000000000000

 C         

      7   S      21          3047.5248800    0.001834737132
      7   S      22           457.3695180    0.014037322813
      7   S      23           103.9486850    0.068842622264
      7   S      24            29.2101553    0.232184443216
      7   S      25             9.2866630    0.467941348435
      7   S      26             3.1639270    0.362311985337

      8   L      27             7.8682723   -0.119332419775    0.068999066591
      8   L      28             1.8812885   -0.160854151696    0.316423960957
      8   L      29             0.5442493    1.143456437840    0.744308290898

      9   L      30             0.1687145    1.000000000000    1.000000000000

 C         

     10   S      31          3047.5248800    0.001834737132
     10   S      32           457.3695180    0.014037322813
     10   S      33           103.9486850    0.068842622264
     10   S      34            29.2101553    0.232184443216
     10   S      35             9.2866630    0.467941348435
     10   S      36             3.1639270    0.362311985337

     11   L      37             7.8682723   -0.119332419775    0.068999066591
     11   L      38             1.8812885   -0.160854151696    0.316423960957
     11   L      39             0.5442493    1.143456437840    0.744308290898

     12   L      40             0.1687145    1.000000000000    1.000000000000

 C         

     13   S      41          3047.5248800    0.001834737132
     13   S      42           457.3695180    0.014037322813
     13   S      43           103.9486850    0.068842622264
     13   S      44            29.2101553    0.232184443216
     13   S      45             9.2866630    0.467941348435
     13   S      46             3.1639270    0.362311985337

     14   L      47             7.8682723   -0.119332419775    0.068999066591
     14   L      48             1.8812885   -0.160854151696    0.316423960957
     14   L      49             0.5442493    1.143456437840    0.744308290898

     15   L      50             0.1687145    1.000000000000    1.000000000000

 C         

     16   S      51          3047.5248800    0.001834737132
     16   S      52           457.3695180    0.014037322813
     16   S      53           103.9486850    0.068842622264
     16   S      54            29.2101553    0.232184443216
     16   S      55             9.2866630    0.467941348435
     16   S      56             3.1639270    0.362311985337

     17   L      57             7.8682723   -0.119332419775    0.068999066591
     17   L      58             1.8812885   -0.160854151696    0.316423960957
     17   L      59             0.5442493    1.143456437840    0.744308290898

     18   L      60             0.1687145    1.000000000000    1.000000000000

 H         

     19   S      61            18.7311370    0.033494604338
     19   S      62             2.8253944    0.234726953484
     19   S      63             0.6401217    0.813757326146

     20   S      64             0.1612778    1.000000000000

 H         

     21   S      65            18.7311370    0.033494604338
     21   S      66             2.8253944    0.234726953484
     21   S      67             0.6401217    0.813757326146

     22   S      68             0.1612778    1.000000000000

 H         

     23   S      69            18.7311370    0.033494604338
     23   S      70             2.8253944    0.234726953484
     23   S      71             0.6401217    0.813757326146

     24   S      72             0.1612778    1.000000000000

 H         

     25   S      73            18.7311370    0.033494604338
     25   S      74             2.8253944    0.234726953484
     25   S      75             0.6401217    0.813757326146

     26   S      76             0.1612778    1.000000000000

 H         

     27   S      77            18.7311370    0.033494604338
     27   S      78             2.8253944    0.234726953484
     27   S      79             0.6401217    0.813757326146

     28   S      80             0.1612778    1.000000000000

 CU        

     29   S      81         76794.3800000    0.001748161083
     29   S      82         11530.7000000    0.013396020638
     29   S      83          2626.5750000    0.066108853150
     29   S      84           740.4903000    0.229826510951
     29   S      85           237.3528000    0.478767522812
     29   S      86            81.1581800    0.353073916823

     30   L      87          1610.8140000    0.002364054998    0.003963306847
     30   L      88           383.6367000    0.031536349971    0.031102228803
     30   L      89           124.1733000    0.126945199883    0.136134994761
     30   L      90            46.7467800   -0.022628399979    0.349291386558
     30   L      91            19.0656900   -0.619207999430    0.462477982202
     30   L      92             7.8715670   -0.458539299578    0.202010192226

     31   L      93            64.4573200   -0.004331075387   -0.007523724515
     31   L      94            21.8521200    0.074123076623   -0.029756868084
     31   L      95             9.4053430    0.254210822713    0.068496535589
     31   L      96             3.9991680   -0.287484325686    0.402714074065
     31   L      97             1.6702970   -0.729143665148    0.490848968389
     31   L      98             0.6596270   -0.211395118888    0.175926788670

     32   L      99             2.6000880    0.050275770029   -0.170291095031
     32   L     100             0.9630940    0.265004000152    0.093101327283
     32   L     101             0.1361610   -1.120155000642    0.981433571362

     33   L     102             0.0473320    1.000000000000    1.000000000000

     34   D     103            30.8534100    0.091999053845
     34   D     104             8.2649850    0.398502116657
     34   D     105             2.4953320    0.691789728916

     35   D     106             0.6676580    1.000000000000

 TOTAL NUMBER OF BASIS SET SHELLS             =   35
 NUMBER OF CARTESIAN GAUSSIAN BASIS FUNCTIONS =   93
 NUMBER OF ELECTRONS                          =   69
 CHARGE OF MOLECULE                           =    2
 SPIN MULTIPLICITY                            =    2
 NUMBER OF OCCUPIED ORBITALS (ALPHA)          =   35
 NUMBER OF OCCUPIED ORBITALS (BETA )          =   34
 TOTAL NUMBER OF ATOMS                        =   12
 THE NUCLEAR REPULSION ENERGY IS      471.1584833343

     $CONTRL OPTIONS
     ---------------
 SCFTYP=ROHF         RUNTYP=ENERGY       EXETYP=RUN     
 MPLEVL=       0     CITYP =NONE         CCTYP =NONE         VBTYP =NONE    
 DFTTYP=NONE         TDDFT =NONE    
 MULT  =       2     ICHARG=       2     NZVAR =       0     COORD =UNIQUE  
 PP    =NONE         RELWFN=NONE         LOCAL =NONE         NUMGRD=       F
 ISPHER=      -1     NOSYM =       0     MAXIT =       1     UNITS =ANGS    
 PLTORB=       F     MOLPLT=       F     AIMPAC=       F     FRIEND=        
 NPRINT=       3     IREST =       0     GEOM  =INPUT   
 NORMF =       0     NORMP =       0     ITOL  =      20     ICUT  =       9
 INTTYP=BEST         GRDTYP=BEST         QMTTOL= 1.0E-06

     $SYSTEM OPTIONS
     ---------------
  REPLICATED MEMORY=     1000000 WORDS (ON EVERY NODE).
 DISTRIBUTED MEMDDI=           0 MILLION WORDS IN AGGREGATE,
 MEMDDI DISTRIBUTED OVER   1 PROCESSORS IS           0 WORDS/PROCESSOR.
 TOTAL MEMORY REQUESTED ON EACH PROCESSOR=     1000000 WORDS.
 TIMLIM=          10.00 MINUTES, OR       0.0 DAYS.
 PARALL= F  BALTYP=  DLB     KDIAG=    0  COREFL= F
 MXSEQ2=     300 MXSEQ3=     150  mem10=         0

          ----------------
          PROPERTIES INPUT
          ----------------

     MOMENTS            FIELD           POTENTIAL          DENSITY
 IEMOM =       1   IEFLD =       0   IEPOT =       0   IEDEN =       0
 WHERE =COMASS     WHERE =NUCLEI     WHERE =NUCLEI     WHERE =NUCLEI  
 OUTPUT=BOTH       OUTPUT=BOTH       OUTPUT=BOTH       OUTPUT=BOTH    
 IEMINT=       0   IEFINT=       0                     IEDINT=       0
                                                       MORB  =       0
          EXTRAPOLATION IN EFFECT
          SOSCF IN EFFECT
 ORBITAL PRINTING OPTION: NPREO=     1    93     2     1

     -------------------------------
     INTEGRAL TRANSFORMATION OPTIONS
     -------------------------------
     NWORD  =            0
     CUTOFF = 1.0E-09     MPTRAN =       0
     DIRTRF =       F     AOINTS =DUP     

          ----------------------
          INTEGRAL INPUT OPTIONS
          ----------------------
 NOPK  =       1 NORDER=       0 SCHWRZ=       T

     ------------------------------------------
     THE POINT GROUP IS C1 , NAXIS= 0, ORDER= 1
     ------------------------------------------

     DIMENSIONS OF THE SYMMETRY SUBSPACES ARE
 A   =   93

 ..... DONE SETTING UP THE RUN .....
 STEP CPU TIME =     0.03 TOTAL CPU TIME =          0.0 (      0.0 MIN)
 TOTAL WALL CLOCK TIME=          0.0 SECONDS, CPU UTILIZATION IS    75.00%

          ********************
          1 ELECTRON INTEGRALS
          ********************
 OVERLAP MATRIX

                      1          2          3          4          5

    1  C  1  S    1.000000
    2  C  1  S    0.219059   1.000000
    3  C  1  X    0.000000  -0.000000   1.000000
    4  C  1  Y    0.000000   0.000000  -0.000000   1.000000
    5  C  1  Z    0.000000  -0.000000   0.000000  -0.000000   1.000000
    6  C  1  S    0.184261   0.812273  -0.000000   0.000000  -0.000000
    7  C  1  X    0.000000  -0.000000   0.569754   0.000000   0.000000
    8  C  1  Y   -0.000000   0.000000   0.000000   0.569754   0.000000
    9  C  1  Z    0.000000  -0.000000   0.000000   0.000000   0.569754
   10  N  2  S    0.000001   0.015058   0.000572  -0.029137  -0.016975
   11  N  2  S    0.008189   0.152988   0.004071  -0.207228  -0.120732
   12  N  2  X   -0.000338  -0.003479   0.081349   0.005301   0.003088
   13  N  2  Y    0.017219   0.177110   0.005301  -0.188379  -0.157205
   14  N  2  Z    0.010032   0.103185   0.003088  -0.157205  -0.010134
   15  N  2  S    0.059121   0.339220   0.004787  -0.243679  -0.141968
   16  N  2  X   -0.002231  -0.009428   0.242205   0.007127   0.004152
   17  N  2  Y    0.113587   0.479935   0.007127  -0.120448  -0.211364
   18  N  2  Z    0.066176   0.279611   0.004152  -0.211364   0.119204
   19  C  3  S    0.000002   0.014212   0.000891   0.001242   0.032491
   20  C  3  S    0.014212   0.172060   0.006781   0.009454   0.247240
   21  C  3  X   -0.000891  -0.006781   0.094964  -0.000422  -0.011043
   22  C  3  Y   -0.001242  -0.009454  -0.000422   0.094678  -0.015397
   23  C  3  Z   -0.032491  -0.247240  -0.011043  -0.015397  -0.307378
   24  C  3  S    0.057871   0.330848   0.006687   0.009323   0.243803
   25  C  3  X   -0.003350  -0.014890   0.222400  -0.000437  -0.011427
   26  C  3  Y   -0.004671  -0.020761  -0.000437   0.222105  -0.015933
   27  C  3  Z   -0.122156  -0.542918  -0.011427  -0.015933  -0.193945
   28  C  4  S    0.000000   0.000018   0.000001  -0.000033   0.000062
   29  C  4  S    0.000018   0.004265   0.000072  -0.004538   0.008365
   30  C  4  X   -0.000001  -0.000072   0.001866   0.000078  -0.000143
   31  C  4  Y    0.000033   0.004538   0.000078  -0.003048   0.009060
   32  C  4  Z   -0.000062  -0.008365  -0.000143   0.009060  -0.014834
   33  C  4  S    0.006053   0.056813   0.000510  -0.032306   0.059552
   34  C  4  X   -0.000165  -0.001215   0.035980   0.000711  -0.001310
   35  C  4  Y    0.010468   0.076933   0.000711  -0.008996   0.082928
   36  C  4  Z   -0.019296  -0.141815  -0.001310   0.082928  -0.116874
   37  C  5  S    0.000000   0.000001   0.000000  -0.000004   0.000002
   38  C  5  S    0.000001   0.000817   0.000030  -0.001765   0.001051
   39  C  5  X   -0.000000  -0.000030   0.000350   0.000066  -0.000039
   40  C  5  Y    0.000004   0.001765   0.000066  -0.003487   0.002286
   41  C  5  Z   -0.000002  -0.001051  -0.000039   0.002286  -0.001011
   42  C  5  S    0.002248   0.026141   0.000509  -0.029807   0.017755
   43  C  5  X   -0.000136  -0.001239   0.016203   0.001447  -0.000862
   44  C  5  Y    0.007955   0.072579   0.001447  -0.068518   0.050482
   45  C  5  Z   -0.004739  -0.043234  -0.000862   0.050482  -0.013843
   46  C  6  S    0.000000   0.000046   0.000000  -0.000168  -0.000000
   47  C  6  S    0.000046   0.007173   0.000012  -0.015327  -0.000005
   48  C  6  X   -0.000000  -0.000012   0.003176   0.000027   0.000000
   49  C  6  Y    0.000168   0.015327   0.000027  -0.030357  -0.000010
   50  C  6  Z    0.000000   0.000005   0.000000  -0.000010   0.003176
   51  C  6  S    0.008273   0.072558   0.000066  -0.083063  -0.000024
   52  C  6  X   -0.000023  -0.000157   0.046294   0.000185   0.000000
   53  C  6  Y    0.028605   0.196258   0.000185  -0.185088  -0.000068
   54  C  6  Z    0.000008   0.000058   0.000000  -0.000068   0.046294
   55  H  7  S    0.000000   0.000013  -0.000000  -0.000040  -0.000007
   56  H  7  S    0.000477   0.007450  -0.000056  -0.010874  -0.002001
   57  H  8  S    0.000000   0.000000   0.000000  -0.000001   0.000000
   58  H  8  S    0.000052   0.001271   0.000014  -0.001865   0.001077
   59  H  9  S    0.000000   0.000005   0.000000  -0.000005   0.000014
   60  H  9  S    0.000278   0.004855   0.000015  -0.002533   0.007027
   61  H 10  S    0.000033   0.006825   0.000147   0.006897   0.013172
   62  H 10  S    0.013222   0.103415   0.001071   0.050249   0.095974
   63  H 11  S    0.034779   0.282472  -0.007052   0.316224  -0.207189
   64  H 11  S    0.093750   0.482391  -0.004960   0.222441  -0.145742
   65  CU12  S    0.000000   0.000001   0.000004  -0.000002   0.000001
   66  CU12  S   -0.000000  -0.000011  -0.000038   0.000023  -0.000014
   67  CU12  X   -0.000000  -0.000008  -0.000023   0.000015  -0.000009
   68  CU12  Y    0.000000   0.000005   0.000015  -0.000007   0.000006
   69  CU12  Z   -0.000000  -0.000003  -0.000009   0.000006  -0.000002
   70  CU12  S   -0.000001  -0.000869  -0.001823   0.001098  -0.000688
   71  CU12  X   -0.000005  -0.001801  -0.003299   0.002253  -0.001412
   72  CU12  Y    0.000003   0.001084   0.002253  -0.000914   0.000850
   73  CU12  Z   -0.000002  -0.000679  -0.001412   0.000850  -0.000090
   74  CU12  S   -0.013026  -0.099755  -0.080636   0.048554  -0.030419
   75  CU12  X   -0.029622  -0.185621  -0.101811   0.093416  -0.058525
   76  CU12  Y    0.017837   0.111770   0.093416  -0.002921   0.035240
   77  CU12  Z   -0.011175  -0.070024  -0.058525   0.035240   0.031250
   78  CU12  S    0.029267   0.179307   0.059360  -0.035743   0.022393
   79  CU12  X   -0.045670  -0.258821  -0.011318   0.052149  -0.032671
   80  CU12  Y    0.027500   0.155847   0.052149   0.043886   0.019673
   81  CU12  Z   -0.017229  -0.097638  -0.032671   0.019673   0.062962
   82  CU12 XX    0.000000   0.000275   0.000697  -0.000477   0.000299
   83  CU12 YY    0.000000   0.000151   0.000436  -0.000206   0.000165
   84  CU12 ZZ    0.000000   0.000108   0.000313  -0.000189   0.000082
   85  CU12 XY   -0.000000  -0.000203  -0.000533   0.000269  -0.000220
   86  CU12 XZ    0.000000   0.000127   0.000334  -0.000220   0.000056
   87  CU12 YZ   -0.000000  -0.000077  -0.000220   0.000101  -0.000033
   88  CU12 XX    0.000077   0.014199   0.021772  -0.016777   0.010511
   89  CU12 YY    0.000029   0.006374   0.012464  -0.003838   0.004702
   90  CU12 ZZ    0.000012   0.003670   0.007143  -0.004301   0.000397
   91  CU12 XY   -0.000080  -0.012802  -0.022018   0.009896  -0.009504
   92  CU12 XZ    0.000050   0.008020   0.013794  -0.009504   0.000680
   93  CU12 YZ   -0.000030  -0.004829  -0.009504   0.003733  -0.000410

                      6          7          8          9         10

    6  C  1  S    1.000000
    7  C  1  X    0.000000   1.000000
    8  C  1  Y    0.000000   0.000000   1.000000
    9  C  1  Z    0.000000   0.000000   0.000000   1.000000
   10  N  2  S    0.051188   0.001757  -0.089424  -0.052098   1.000000
   11  N  2  S    0.293623   0.008381  -0.426644  -0.248564   0.222216
   12  N  2  X   -0.003102   0.175980   0.004638   0.002702   0.000000
   13  N  2  Y    0.157924   0.004638  -0.060041  -0.137560   0.000000
   14  N  2  Z    0.092007   0.002702  -0.137560   0.095929   0.000000
   15  N  2  S    0.543342   0.010663  -0.542786  -0.316228   0.171869
   16  N  2  X   -0.009511   0.539628   0.009502   0.005536  -0.000000
   17  N  2  Y    0.484177   0.009502   0.056133  -0.281794  -0.000000
   18  N  2  Z    0.282083   0.005536  -0.281794   0.375641  -0.000000
   19  C  3  S    0.057871   0.003350   0.004671   0.122156   0.000000
   20  C  3  S    0.330848   0.014890   0.020761   0.542918   0.000012
   21  C  3  X   -0.006687   0.222400  -0.000437  -0.011427  -0.000000
   22  C  3  Y   -0.009323  -0.000437   0.222105  -0.015933  -0.000024
   23  C  3  Z   -0.243803  -0.011427  -0.015933  -0.193945  -0.000042
   24  C  3  S    0.548535   0.016469   0.022962   0.600478   0.004856
   25  C  3  X   -0.016469   0.548041  -0.000689  -0.018028  -0.000117
   26  C  3  Y   -0.022962  -0.000689   0.547574  -0.025136  -0.008875
   27  C  3  Z   -0.600478  -0.018028  -0.025136  -0.108804  -0.015288
   28  C  4  S    0.006053   0.000165  -0.010468   0.019296   0.000000
   29  C  4  S    0.056813   0.001215  -0.076933   0.141815   0.000000
   30  C  4  X   -0.000510   0.035980   0.000711  -0.001310   0.000000
   31  C  4  Y    0.032306   0.000711  -0.008996   0.082928   0.000000
   32  C  4  Z   -0.059552  -0.001310   0.082928  -0.116874  -0.000001
   33  C  4  S    0.170022   0.002411  -0.152613   0.281321   0.001448
   34  C  4  X   -0.002411   0.169988   0.002164  -0.003989   0.000010
   35  C  4  Y    0.152613   0.002164   0.033035   0.252516   0.000002
   36  C  4  Z   -0.281321  -0.003989   0.252516  -0.295456  -0.006136
   37  C  5  S    0.002248   0.000136  -0.007955   0.004739   0.000000
   38  C  5  S    0.026141   0.001239  -0.072579   0.043234   0.000012
   39  C  5  X   -0.000509   0.016203   0.001447  -0.000862  -0.000000
   40  C  5  Y    0.029807   0.001447  -0.068518   0.050482   0.000024
   41  C  5  Z   -0.017755  -0.000862   0.050482  -0.013843  -0.000042
   42  C  5  S    0.101687   0.003190  -0.186773   0.111258   0.004855
   43  C  5  X   -0.003190   0.101587   0.005858  -0.003490  -0.000130
   44  C  5  Y    0.186773   0.005858  -0.241367   0.204352   0.008884
   45  C  5  Z   -0.111258  -0.003490   0.204352  -0.020042  -0.015282
   46  C  6  S    0.008273   0.000023  -0.028605  -0.000008   0.000001
   47  C  6  S    0.072558   0.000157  -0.196258  -0.000058   0.015056
   48  C  6  X   -0.000066   0.046294   0.000185   0.000000   0.000526
   49  C  6  Y    0.083063   0.000185  -0.185088  -0.000068   0.029145
   50  C  6  Z    0.000024   0.000000  -0.000068   0.046294  -0.016956
   51  C  6  S    0.199964   0.000287  -0.358780  -0.000106   0.051186
   52  C  6  X   -0.000287   0.199963   0.000515   0.000000   0.001613
   53  C  6  Y    0.358780   0.000515  -0.443767  -0.000189   0.089456
   54  C  6  Z    0.000106   0.000000  -0.000189   0.199964  -0.052044
   55  H  7  S    0.003871  -0.000080  -0.015405  -0.002835   0.000047
   56  H  7  S    0.043296  -0.000545  -0.105485  -0.019412   0.013141
   57  H  8  S    0.000565   0.000017  -0.002318   0.001339   0.000000
   58  H  8  S    0.013315   0.000250  -0.033500   0.019348   0.000240
   59  H  9  S    0.002427   0.000021  -0.003477   0.009644   0.000000
   60  H  9  S    0.032531   0.000174  -0.028551   0.079190   0.000030
   61  H 10  S    0.069281   0.001847   0.086683   0.165562   0.000000
   62  H 10  S    0.251918   0.004086   0.191796   0.366324   0.000240
   63  H 11  S    0.382568  -0.009622   0.431503  -0.282719   0.000047
   64  H 11  S    0.710766  -0.010823   0.485349  -0.317999   0.013141
   65  CU12  S    0.000606   0.001802  -0.001085   0.000680   0.000000
   66  CU12  S   -0.004452  -0.013038   0.007850  -0.004918   0.000000
   67  CU12  X   -0.000989  -0.002238   0.001747  -0.001095   0.000000
   68  CU12  Y    0.000596   0.001747  -0.000388   0.000659   0.000000
   69  CU12  Z   -0.000373  -0.001095   0.000659   0.000251   0.000000
   70  CU12  S   -0.027624  -0.071226   0.042888  -0.026869  -0.000001
   71  CU12  X   -0.022166  -0.041865   0.034175  -0.021410  -0.000003
   72  CU12  Y    0.013347   0.034175  -0.005687   0.012892  -0.000000
   73  CU12  Z   -0.008362  -0.021410   0.012892   0.006814  -0.000002
   74  CU12  S   -0.240413  -0.307365   0.185077  -0.115950  -0.010055
   75  CU12  X   -0.326528  -0.216422   0.262400  -0.164393  -0.022786
   76  CU12  Y    0.196616   0.262400   0.061353   0.098988  -0.000009
   77  CU12  Z   -0.123179  -0.164393   0.098988   0.157340  -0.016793
   78  CU12  S    0.362391   0.236367  -0.142327   0.089167   0.022892
   79  CU12  X   -0.446258   0.008720   0.175264  -0.109803  -0.035402
   80  CU12  Y    0.268711   0.175264   0.194254   0.066117  -0.000014
   81  CU12  Z   -0.168346  -0.109803   0.066117   0.258366  -0.026092
   82  CU12 XX    0.017328   0.044185  -0.029334   0.018378   0.000000
   83  CU12 YY    0.015178   0.042702  -0.022984   0.016109   0.000000
   84  CU12 ZZ    0.014435   0.040624  -0.024461   0.013616   0.000000
   85  CU12 XY   -0.003517  -0.007477   0.002001  -0.003712   0.000000
   86  CU12 XZ    0.002204   0.004684  -0.003712  -0.001599   0.000000
   87  CU12 YZ   -0.001327  -0.003712   0.000755   0.000963   0.000000
   88  CU12 XX    0.087630   0.152688  -0.125402   0.078564   0.000041
   89  CU12 YY    0.061264   0.145601  -0.054210   0.054926   0.000000
   90  CU12 ZZ    0.052154   0.123949  -0.074635   0.025794   0.000023
   91  CU12 XY   -0.043138  -0.073543   0.013606  -0.038675   0.000000
   92  CU12 XZ    0.027026   0.046074  -0.038675  -0.023897   0.000052
   93  CU12 YZ   -0.016273  -0.038675   0.005133   0.014390   0.000000

                     11         12         13         14         15

   11  N  2  S    1.000000
   12  N  2  X   -0.000000   1.000000
   13  N  2  Y    0.000000   0.000000   1.000000
   14  N  2  Z   -0.000000   0.000000   0.000000   1.000000
   15  N  2  S    0.775507  -0.000000  -0.000000   0.000000   1.000000
   16  N  2  X   -0.000000   0.519296   0.000000   0.000000   0.000000
   17  N  2  Y   -0.000000   0.000000   0.519296   0.000000  -0.000000
   18  N  2  Z    0.000000   0.000000   0.000000   0.519296   0.000000
   19  C  3  S    0.000001   0.000000   0.000002   0.000003   0.003245
   20  C  3  S    0.001700   0.000025   0.001861   0.003205   0.039445
   21  C  3  X   -0.000029   0.000721  -0.000032  -0.000055  -0.000360
   22  C  3  Y   -0.002192  -0.000032  -0.001705  -0.004180  -0.027225
   23  C  3  Z   -0.003775  -0.000055  -0.004180  -0.006479  -0.046900
   24  C  3  S    0.041218   0.000292   0.022094   0.038061   0.141255
   25  C  3  X   -0.000831   0.023529  -0.000455  -0.000784  -0.001951
   26  C  3  Y   -0.062924  -0.000455  -0.010915  -0.059346  -0.147697
   27  C  3  Z   -0.108398  -0.000784  -0.059346  -0.078699  -0.254435
   28  C  4  S    0.000000  -0.000000  -0.000000   0.000000   0.000732
   29  C  4  S    0.000163  -0.000001  -0.000000   0.000408   0.012962
   30  C  4  X    0.000001   0.000068  -0.000000   0.000002   0.000032
   31  C  4  Y    0.000000  -0.000000   0.000068   0.000000   0.000006
   32  C  4  Z   -0.000485   0.000002   0.000000  -0.001154  -0.020165
   33  C  4  S    0.014990  -0.000029  -0.000006   0.018265   0.070690
   34  C  4  X    0.000084   0.008389  -0.000000   0.000104   0.000271
   35  C  4  Y    0.000016  -0.000000   0.008389   0.000020   0.000053
   36  C  4  Z   -0.053148   0.000104   0.000020  -0.057555  -0.171414
   37  C  5  S    0.000001   0.000000  -0.000002   0.000003   0.003245
   38  C  5  S    0.001699   0.000027  -0.001862   0.003204   0.039442
   39  C  5  X   -0.000032   0.000721   0.000036  -0.000061  -0.000399
   40  C  5  Y    0.002194   0.000036  -0.001710   0.004182   0.027252
   41  C  5  Z   -0.003773  -0.000061   0.004182  -0.006473  -0.046880
   42  C  5  S    0.041215   0.000323  -0.022116   0.038045   0.141249
   43  C  5  X   -0.000921   0.023526   0.000505  -0.000869  -0.002163
   44  C  5  Y    0.062987   0.000505  -0.010989   0.059384   0.147849
   45  C  5  Z   -0.108351  -0.000869   0.059384  -0.078621  -0.254332
   46  C  6  S    0.008187  -0.000311  -0.017223   0.010020   0.059118
   47  C  6  S    0.152977  -0.003195  -0.177167   0.103072   0.339208
   48  C  6  X    0.003739   0.081359  -0.004870   0.002833   0.004397
   49  C  6  Y    0.207294  -0.004870  -0.188577   0.157095   0.243767
   50  C  6  Z   -0.120600   0.002833   0.157095  -0.009948  -0.141819
   51  C  6  S    0.293614  -0.002849  -0.157982   0.091911   0.543330
   52  C  6  X    0.007698   0.175989  -0.004262   0.002479   0.009794
   53  C  6  Y    0.426800  -0.004262  -0.060227   0.137471   0.542990
   54  C  6  Z   -0.248305   0.002479   0.137471   0.096087  -0.315902
   55  H  7  S    0.004641  -0.000183  -0.009578   0.000383   0.063329
   56  H  7  S    0.093766  -0.001605  -0.083932   0.003359   0.246831
   57  H  8  S    0.000001   0.000000  -0.000001   0.000002   0.001047
   58  H  8  S    0.003218   0.000003  -0.002845   0.003409   0.023924
   59  H  9  S    0.000000  -0.000000  -0.000000   0.000000   0.000126
   60  H  9  S    0.000557  -0.000003  -0.000000   0.000866   0.007134
   61  H 10  S    0.000001  -0.000000   0.000001   0.000002   0.001047
   62  H 10  S    0.003218  -0.000002   0.002844   0.003411   0.023926
   63  H 11  S    0.004641  -0.000199   0.009577   0.000389   0.063329
   64  H 11  S    0.093766  -0.001746   0.083927   0.003410   0.246831
   65  CU12  S    0.000000   0.000000   0.000000   0.000000   0.000305
   66  CU12  S   -0.000000  -0.000001  -0.000000  -0.000001  -0.002289
   67  CU12  X   -0.000000  -0.000001  -0.000000  -0.000001  -0.000627
   68  CU12  Y   -0.000000  -0.000000   0.000000  -0.000000  -0.000000
   69  CU12  Z   -0.000000  -0.000001  -0.000000  -0.000000  -0.000462
   70  CU12  S   -0.000233  -0.000461  -0.000000  -0.000340  -0.016652
   71  CU12  X   -0.000593  -0.001047  -0.000000  -0.000863  -0.016114
   72  CU12  Y   -0.000000  -0.000000   0.000123  -0.000000  -0.000007
   73  CU12  Z   -0.000437  -0.000863  -0.000000  -0.000513  -0.011876
   74  CU12  S   -0.073341  -0.052170  -0.000021  -0.038450  -0.203167
   75  CU12  X   -0.143317  -0.069506  -0.000042  -0.076799  -0.296513
   76  CU12  Y   -0.000058  -0.000042   0.034698  -0.000031  -0.000120
   77  CU12  Z   -0.105625  -0.076799  -0.000031  -0.021904  -0.218533
   78  CU12  S    0.140110   0.039071   0.000016   0.028796   0.315696
   79  CU12  X   -0.204980  -0.007446  -0.000023  -0.042447  -0.402153
   80  CU12  Y   -0.000083  -0.000023   0.050148  -0.000017  -0.000163
   81  CU12  Z   -0.151072  -0.042447  -0.000017   0.018864  -0.296390
   82  CU12 XX    0.000027   0.000075   0.000000   0.000062   0.010246
   83  CU12 YY    0.000005   0.000015   0.000000   0.000011   0.007481
   84  CU12 ZZ    0.000017   0.000053   0.000000   0.000032   0.008983
   85  CU12 XY    0.000000   0.000000  -0.000008   0.000000   0.000002
   86  CU12 XZ    0.000028   0.000082   0.000000   0.000057   0.003529
   87  CU12 YZ    0.000000   0.000000  -0.000006   0.000000   0.000001
   88  CU12 XX    0.005899   0.009127   0.000005   0.008389   0.066308
   89  CU12 YY    0.000510   0.000967  -0.000001   0.000713   0.028694
   90  CU12 ZZ    0.003437   0.006625   0.000003   0.003220   0.049125
   91  CU12 XY    0.000004   0.000007  -0.001953   0.000005   0.000026
   92  CU12 XZ    0.006879   0.011855   0.000005   0.007845   0.048015
   93  CU12 YZ    0.000003   0.000005  -0.001440   0.000003   0.000020

                     16         17         18         19         20

   16  N  2  X    1.000000
   17  N  2  Y    0.000000   1.000000
   18  N  2  Z    0.000000   0.000000   1.000000
   19  C  3  S    0.000086   0.006516   0.011226   1.000000
   20  C  3  S    0.000780   0.059041   0.101710   0.219059   1.000000
   21  C  3  X    0.025861  -0.000554  -0.000955   0.000000  -0.000000
   22  C  3  Y   -0.000554  -0.016085  -0.072274  -0.000000   0.000000
   23  C  3  Z   -0.000955  -0.072274  -0.098636   0.000000   0.000000
   24  C  3  S    0.001741   0.131749   0.226962   0.184261   0.812273
   25  C  3  X    0.140314  -0.001820  -0.003135   0.000000  -0.000000
   26  C  3  Y   -0.001820   0.002582  -0.237311  -0.000000   0.000000
   27  C  3  Z   -0.003135  -0.237311  -0.268475  -0.000000   0.000000
   28  C  4  S   -0.000005  -0.000001   0.003404   0.000002   0.014402
   29  C  4  S   -0.000071  -0.000014   0.045141   0.014402   0.173280
   30  C  4  X    0.008262  -0.000000   0.000113   0.000477   0.003605
   31  C  4  Y   -0.000000   0.008262   0.000022   0.028261   0.213791
   32  C  4  Z    0.000113   0.000022  -0.063515  -0.016843  -0.127419
   33  C  4  S   -0.000241  -0.000047   0.152905   0.058131   0.332001
   34  C  4  X    0.070230  -0.000000   0.000586   0.001776   0.007884
   35  C  4  Y   -0.000000   0.070231   0.000115   0.105305   0.467551
   36  C  4  Z    0.000586   0.000115  -0.300543  -0.062761  -0.278659
   37  C  5  S    0.000095  -0.006523   0.011221   0.000000   0.000019
   38  C  5  S    0.000864  -0.059101   0.101666   0.000019   0.004365
   39  C  5  X    0.025858   0.000615  -0.001058  -0.000000  -0.000007
   40  C  5  Y    0.000615  -0.016175   0.072320   0.000073   0.009723
   41  C  5  Z   -0.001058   0.072320  -0.098540   0.000000   0.000003
   42  C  5  S    0.001929  -0.131885   0.226870   0.006138   0.057438
   43  C  5  X    0.140302   0.002019  -0.003473  -0.000016  -0.000116
   44  C  5  Y    0.002019   0.002283   0.237472   0.022217   0.162778
   45  C  5  Z   -0.003473   0.237472  -0.268172   0.000007   0.000050
   46  C  6  S   -0.002049  -0.113627   0.066106   0.000000   0.000001
   47  C  6  S   -0.008659  -0.480109   0.279319   0.000001   0.000818
   48  C  6  X    0.242218  -0.006548   0.003810   0.000000   0.000027
   49  C  6  Y   -0.006548  -0.120732   0.211226   0.000004   0.001765
   50  C  6  Z    0.003810   0.211226   0.119448   0.000002   0.001053
   51  C  6  S   -0.008736  -0.484359   0.281791   0.002249   0.026144
   52  C  6  X    0.539645  -0.008731   0.005079   0.000124   0.001130
   53  C  6  Y   -0.008731   0.055746   0.281615   0.007953   0.072563
   54  C  6  Z    0.005079   0.281615   0.375964   0.004744   0.043284
   55  H  7  S   -0.003309  -0.173076   0.006927   0.000000   0.000000
   56  H  7  S   -0.007293  -0.381496   0.015268   0.000052   0.001269
   57  H  8  S    0.000003  -0.002976   0.003565   0.000000   0.000005
   58  H  8  S    0.000036  -0.038864   0.046559   0.000281   0.004896
   59  H  9  S   -0.000003  -0.000000   0.000643   0.000032   0.006688
   60  H  9  S   -0.000084  -0.000006   0.020821   0.013081   0.102545
   61  H 10  S   -0.000002   0.002974   0.003567   0.034774   0.282453
   62  H 10  S   -0.000024   0.038837   0.046587   0.093747   0.482378
   63  H 11  S   -0.003601   0.173066   0.007033   0.000030   0.006553
   64  H 11  S   -0.007937   0.381473   0.015502   0.012941   0.101678
   65  CU12  S    0.001003   0.000000   0.000739   0.000000   0.000001
   66  CU12  S   -0.007394  -0.000003  -0.005449  -0.000000  -0.000013
   67  CU12  X   -0.001651  -0.000001  -0.001497  -0.000000  -0.000008
   68  CU12  Y   -0.000001   0.000380  -0.000001   0.000000   0.000005
   69  CU12  Z   -0.001497  -0.000001  -0.000723   0.000000   0.000003
   70  CU12  S   -0.045794  -0.000019  -0.033750  -0.000001  -0.000944
   71  CU12  X   -0.034169  -0.000018  -0.032385  -0.000006  -0.001914
   72  CU12  Y   -0.000018   0.009772  -0.000013   0.000004   0.001231
   73  CU12  Z   -0.032385  -0.000013  -0.014096   0.000002   0.000700
   74  CU12  S   -0.253216  -0.000103  -0.186622  -0.013470  -0.102497
   75  CU12  X   -0.204144  -0.000156  -0.282979  -0.030014  -0.186914
   76  CU12  Y   -0.000156   0.179813  -0.000115   0.019306   0.120230
   77  CU12  Z   -0.282979  -0.000115  -0.028745   0.010971   0.068322
   78  CU12  S    0.190007   0.000077   0.140036   0.029617   0.181288
   79  CU12  X    0.001832  -0.000098  -0.178387  -0.045283  -0.256402
   80  CU12  Y   -0.000098   0.243875  -0.000072   0.029128   0.164927
   81  CU12  Z   -0.178387  -0.000072   0.112402   0.016552   0.093722
   82  CU12 XX    0.028080   0.000013   0.023167   0.000000   0.000300
   83  CU12 YY    0.022998   0.000008   0.016949   0.000000   0.000177
   84  CU12 ZZ    0.027580   0.000011   0.017855   0.000000   0.000119
   85  CU12 XY    0.000005  -0.002904   0.000004  -0.000000  -0.000233
   86  CU12 XZ    0.008629   0.000004   0.005033  -0.000000  -0.000132
   87  CU12 YZ    0.000004  -0.002140   0.000002   0.000000   0.000085
   88  CU12 XX    0.120356   0.000067   0.122325   0.000086   0.014787
   89  CU12 YY    0.071825   0.000011   0.052935   0.000036   0.007335
   90  CU12 ZZ    0.122966   0.000050   0.057005   0.000012   0.003774
   91  CU12 XY    0.000050  -0.039508   0.000049  -0.000094  -0.014162
   92  CU12 XZ    0.091069   0.000049   0.049071  -0.000054  -0.008048
   93  CU12 YZ    0.000049  -0.029117   0.000020   0.000034   0.005176

                     21         22         23         24         25

   21  C  3  X    1.000000
   22  C  3  Y   -0.000000   1.000000
   23  C  3  Z    0.000000   0.000000   1.000000
   24  C  3  S   -0.000000  -0.000000   0.000000   1.000000
   25  C  3  X    0.569754  -0.000000  -0.000000   0.000000   1.000000
   26  C  3  Y   -0.000000   0.569754   0.000000   0.000000   0.000000
   27  C  3  Z   -0.000000   0.000000   0.569754   0.000000   0.000000
   28  C  4  S   -0.000477  -0.028261   0.016843   0.058131  -0.001776
   29  C  4  S   -0.003605  -0.213791   0.127419   0.332001  -0.007884
   30  C  4  X    0.095965  -0.005044   0.003006   0.003541   0.223435
   31  C  4  Y   -0.005044  -0.203044   0.178260   0.209992  -0.005194
   32  C  4  Z    0.003006   0.178260  -0.010192  -0.125155   0.003095
   33  C  4  S   -0.003541  -0.209992   0.125155   0.549810  -0.008710
   34  C  4  X    0.223435  -0.005194   0.003095   0.008710   0.549672
   35  C  4  Y   -0.005194  -0.084471   0.183563   0.516529  -0.008183
   36  C  4  Z    0.003095   0.183563   0.114119  -0.307850   0.004877
   37  C  5  S    0.000000  -0.000073  -0.000000   0.006138   0.000016
   38  C  5  S    0.000007  -0.009723  -0.000003   0.057438   0.000116
   39  C  5  X    0.001912   0.000016   0.000000  -0.000049   0.036398
   40  C  5  Y    0.000016  -0.020137  -0.000007   0.068378   0.000142
   41  C  5  Z    0.000000  -0.000007   0.001912   0.000021   0.000000
   42  C  5  S    0.000049  -0.068378  -0.000021   0.171259   0.000230
   43  C  5  X    0.036398   0.000142   0.000000  -0.000230   0.171259
   44  C  5  Y    0.000142  -0.162892  -0.000061   0.321728   0.000432
   45  C  5  Z    0.000000  -0.000061   0.036398   0.000098   0.000000
   46  C  6  S   -0.000000  -0.000004  -0.000002   0.002249  -0.000124
   47  C  6  S   -0.000027  -0.001765  -0.001053   0.026144  -0.001130
   48  C  6  X    0.000350  -0.000060  -0.000036   0.000464   0.016210
   49  C  6  Y   -0.000060  -0.003485  -0.002288   0.029800  -0.001319
   50  C  6  Z   -0.000036  -0.002288  -0.001014   0.017776  -0.000787
   51  C  6  S   -0.000464  -0.029800  -0.017776   0.101696  -0.002907
   52  C  6  X    0.016210  -0.001319  -0.000787   0.002907   0.101613
   53  C  6  Y   -0.001319  -0.068466  -0.050521   0.186723  -0.005338
   54  C  6  Z   -0.000787  -0.050521  -0.013906   0.111380  -0.003184
   55  H  7  S   -0.000000  -0.000001  -0.000000   0.000564  -0.000039
   56  H  7  S   -0.000031  -0.001833  -0.001124   0.013302  -0.000558
   57  H  8  S   -0.000000  -0.000015   0.000002   0.002449  -0.000042
   58  H  8  S   -0.000031  -0.007445   0.001116   0.032716  -0.000347
   59  H  9  S   -0.000213  -0.008151   0.012106   0.068639  -0.002705
   60  H  9  S   -0.001569  -0.060100   0.089261   0.250494  -0.006008
   61  H 10  S   -0.006078   0.333598   0.177866   0.382556  -0.008294
   62  H 10  S   -0.004276   0.234673   0.125122   0.710753  -0.009329
   63  H 11  S   -0.000387   0.005579  -0.013189   0.067998  -0.004981
   64  H 11  S   -0.002891   0.041635  -0.098417   0.249069  -0.011102
   65  CU12  S    0.000004  -0.000003  -0.000001   0.000633   0.001843
   66  CU12  S   -0.000042   0.000027   0.000015  -0.004643  -0.013324
   67  CU12  X   -0.000025   0.000018   0.000010  -0.001011  -0.002213
   68  CU12  Y    0.000018  -0.000009  -0.000006   0.000650   0.001869
   69  CU12  Z    0.000010  -0.000006  -0.000002   0.000370   0.001062
   70  CU12  S   -0.001944   0.001251   0.000711  -0.028667  -0.072435
   71  CU12  X   -0.003425   0.002512   0.001428  -0.022533  -0.041094
   72  CU12  Y    0.002512  -0.001136  -0.000918   0.014494   0.036371
   73  CU12  Z    0.001428  -0.000918  -0.000041   0.008236   0.020668
   74  CU12  S   -0.081213   0.052239   0.029686  -0.244870  -0.306521
   75  CU12  X   -0.098368   0.098554   0.056004  -0.326138  -0.202893
   76  CU12  Y    0.098554  -0.008546  -0.036024   0.209784   0.274338
   77  CU12  Z    0.056004  -0.036024   0.034376   0.119213   0.155896
   78  CU12  S    0.058812  -0.037830  -0.021498   0.365804   0.233781
   79  CU12  X   -0.007948   0.054081   0.030732  -0.441375   0.020534
   80  CU12  Y    0.054081   0.041341  -0.019768   0.283909   0.181443
   81  CU12  Z    0.030732  -0.019768   0.064895   0.161335   0.103107
   82  CU12 XX    0.000742  -0.000544  -0.000309   0.017902   0.044696
   83  CU12 YY    0.000501  -0.000255  -0.000183   0.015926   0.043901
   84  CU12 ZZ    0.000336  -0.000216  -0.000085   0.014982   0.041313
   85  CU12 XY   -0.000598   0.000332   0.000240  -0.003755  -0.007719
   86  CU12 XZ   -0.000340   0.000240   0.000046  -0.002134  -0.004386
   87  CU12 YZ    0.000240  -0.000121  -0.000030   0.001373   0.003763
   88  CU12 XX    0.022018  -0.018307  -0.010403   0.088965   0.150827
   89  CU12 YY    0.014072  -0.004908  -0.005144   0.064876   0.151075
   90  CU12 ZZ    0.007197  -0.004629  -0.000276   0.053365   0.124270
   91  CU12 XY   -0.023754   0.012009   0.009995  -0.045779  -0.075218
   92  CU12 XZ   -0.013499   0.009995   0.000101  -0.026015  -0.042744
   93  CU12 YZ    0.009995  -0.004390  -0.000065   0.016734   0.038967

                     26         27         28         29         30

   26  C  3  Y    1.000000
   27  C  3  Z    0.000000   1.000000
   28  C  4  S   -0.105305   0.062761   1.000000
   29  C  4  S   -0.467551   0.278659   0.219059   1.000000
   30  C  4  X   -0.005194   0.003095  -0.000000  -0.000000   1.000000
   31  C  4  Y   -0.084471   0.183563   0.000000  -0.000000   0.000000
   32  C  4  Z    0.183563   0.114119  -0.000000   0.000000  -0.000000
   33  C  4  S   -0.516529   0.307850   0.184261   0.812273   0.000000
   34  C  4  X   -0.008183   0.004877   0.000000   0.000000   0.569754
   35  C  4  Y    0.064547   0.289216   0.000000  -0.000000   0.000000
   36  C  4  Z    0.289216   0.377438  -0.000000   0.000000   0.000000
   37  C  5  S   -0.022217  -0.000007   0.000002   0.014400   0.000517
   38  C  5  S   -0.162778  -0.000050   0.014400   0.173264   0.003910
   39  C  5  X    0.000142   0.000000  -0.000517  -0.003910   0.095940
   40  C  5  Y   -0.162892  -0.000061   0.028246   0.213694   0.005469
   41  C  5  Z   -0.000061   0.036398   0.016858   0.127537   0.003264
   42  C  5  S   -0.321728  -0.000098   0.058128   0.331986   0.003841
   43  C  5  X    0.000432   0.000000  -0.001926  -0.008552   0.223409
   44  C  5  Y   -0.433141  -0.000185   0.105261   0.467363   0.005632
   45  C  5  Z   -0.000185   0.171259   0.062822   0.278932   0.003361
   46  C  6  S   -0.007953  -0.004744   0.000000   0.000018  -0.000000
   47  C  6  S   -0.072563  -0.043284   0.000018   0.004266  -0.000064
   48  C  6  X   -0.001319  -0.000787   0.000000   0.000064   0.001867
   49  C  6  Y   -0.068466  -0.050521   0.000033   0.004534  -0.000070
   50  C  6  Z   -0.050521  -0.013906   0.000062   0.008369  -0.000129
   51  C  6  S   -0.186723  -0.111380   0.006053   0.056816  -0.000459
   52  C  6  X   -0.005338  -0.003184   0.000149   0.001092   0.035984
   53  C  6  Y   -0.241142  -0.204503   0.010457   0.076852  -0.000638
   54  C  6  Z   -0.204503  -0.020289   0.019304   0.141868  -0.001178
   55  H  7  S   -0.002278  -0.001396   0.000000   0.000005  -0.000000
   56  H  7  S   -0.032952  -0.020197   0.000277   0.004846  -0.000076
   57  H  8  S   -0.010224   0.001532   0.000031   0.006607   0.000043
   58  H  8  S   -0.083654   0.012534   0.012997   0.102026   0.000318
   59  H  9  S   -0.103611   0.153884   0.034683   0.282065  -0.003929
   60  H  9  S   -0.230093   0.341737   0.093679   0.482104  -0.002766
   61  H 10  S    0.455231   0.242717   0.000031   0.006609   0.000021
   62  H 10  S    0.512044   0.273009   0.012999   0.102035   0.000154
   63  H 11  S    0.071731  -0.169560   0.000000   0.000005  -0.000000
   64  H 11  S    0.159886  -0.377944   0.000277   0.004846  -0.000084
   65  CU12  S   -0.001185  -0.000673   0.000000   0.000001   0.000003
   66  CU12  S    0.008570   0.004870  -0.000000  -0.000010  -0.000034
   67  CU12  X    0.001869   0.001062  -0.000000  -0.000007  -0.000021
   68  CU12  Y   -0.000509  -0.000683  -0.000000  -0.000000  -0.000000
   69  CU12  Z   -0.000683   0.000305   0.000000   0.000005   0.000016
   70  CU12  S    0.046593   0.026477  -0.000001  -0.000814  -0.001688
   71  CU12  X    0.036371   0.020668  -0.000005  -0.001672  -0.003020
   72  CU12  Y   -0.007946  -0.013294  -0.000000  -0.000001  -0.000003
   73  CU12  Z   -0.013294   0.007894   0.000003   0.001240   0.002547
   74  CU12  S    0.197165   0.112042  -0.012683  -0.097627  -0.078139
   75  CU12  X    0.274338   0.155896  -0.028568  -0.179904  -0.096666
   76  CU12  Y    0.047139  -0.100278  -0.000025  -0.000155  -0.000128
   77  CU12  Z   -0.100278   0.166619   0.021180   0.133374   0.110327
   78  CU12  S   -0.150377  -0.085453   0.028992   0.177748   0.058278
   79  CU12  X    0.181443   0.103107  -0.044810  -0.254127  -0.009591
   80  CU12  Y    0.185901  -0.066322  -0.000039  -0.000219  -0.000073
   81  CU12  Z   -0.066322   0.264923   0.033220   0.188400   0.062435
   82  CU12 XX   -0.031723  -0.018027   0.000000   0.000248   0.000621
   83  CU12 YY   -0.025266  -0.016047   0.000000   0.000074   0.000211
   84  CU12 ZZ   -0.026574  -0.013412   0.000000   0.000170   0.000484
   85  CU12 XY    0.002619   0.003763   0.000000   0.000000   0.000001
   86  CU12 XZ    0.003763  -0.001865  -0.000000  -0.000224  -0.000581
   87  CU12 YZ   -0.000957   0.001199  -0.000000  -0.000000  -0.000001
   88  CU12 XX   -0.133260  -0.075727   0.000068   0.013150   0.019859
   89  CU12 YY   -0.060935  -0.055222   0.000001   0.001811   0.003454
   90  CU12 ZZ   -0.079935  -0.024829   0.000038   0.008043   0.015590
   91  CU12 XY    0.019777   0.038967   0.000000   0.000017   0.000029
   92  CU12 XZ    0.038967  -0.026652  -0.000086  -0.014560  -0.024709
   93  CU12 YZ   -0.007229   0.017143  -0.000000  -0.000013  -0.000024

                     31         32         33         34         35

   31  C  4  Y    1.000000
   32  C  4  Z   -0.000000   1.000000
   33  C  4  S   -0.000000   0.000000   1.000000
   34  C  4  X    0.000000   0.000000   0.000000   1.000000
   35  C  4  Y    0.569754  -0.000000   0.000000   0.000000   1.000000
   36  C  4  Z   -0.000000   0.569754   0.000000   0.000000   0.000000
   37  C  5  S   -0.028246  -0.016858   0.058128   0.001926  -0.105261
   38  C  5  S   -0.213694  -0.127537   0.331986   0.008552  -0.467363
   39  C  5  X    0.005469   0.003264  -0.003841   0.223409   0.005632
   40  C  5  Y   -0.202809  -0.178359   0.209908   0.005632  -0.084248
   41  C  5  Z   -0.178359  -0.010408   0.125277   0.003361  -0.183677
   42  C  5  S   -0.209908  -0.125277   0.549793   0.009448  -0.516330
   43  C  5  X    0.005632   0.003361  -0.009448   0.549631   0.008873
   44  C  5  Y   -0.084248  -0.183677   0.516330   0.008873   0.064889
   45  C  5  Z   -0.183677   0.113889   0.308157   0.005296  -0.289401
   46  C  6  S   -0.000033  -0.000062   0.006053  -0.000149  -0.010457
   47  C  6  S   -0.004534  -0.008369   0.056816  -0.001092  -0.076852
   48  C  6  X   -0.000070  -0.000129   0.000459   0.035984  -0.000638
   49  C  6  Y   -0.003037  -0.009054   0.032272  -0.000638  -0.008897
   50  C  6  Z   -0.009054  -0.014847   0.059574  -0.001178  -0.082867
   51  C  6  S   -0.032272  -0.059574   0.170028  -0.002167  -0.152450
   52  C  6  X   -0.000638  -0.001178   0.002167   0.170001  -0.001943
   53  C  6  Y   -0.008897  -0.082867   0.152450  -0.001943   0.033340
   54  C  6  Z   -0.082867  -0.116979   0.281421  -0.003587  -0.252327
   55  H  7  S   -0.000009  -0.000012   0.002422  -0.000105  -0.006164
   56  H  7  S   -0.004492  -0.005952   0.032493  -0.000860  -0.050657
   57  H  8  S   -0.014362  -0.001439   0.068255   0.000547  -0.183799
   58  H  8  S   -0.106654  -0.010687   0.249641   0.001218  -0.409075
   59  H  9  S   -0.000119   0.377697   0.382314  -0.005366  -0.000163
   60  H  9  S   -0.000084   0.265957   0.710480  -0.006037  -0.000183
   61  H 10  S    0.014366  -0.001431   0.068262   0.000265   0.183826
   62  H 10  S    0.106669  -0.010623   0.249657   0.000589   0.409118
   63  H 11  S    0.000009  -0.000012   0.002422  -0.000115   0.006169
   64  H 11  S    0.004496  -0.005950   0.032493  -0.000945   0.050696
   65  CU12  S    0.000000  -0.000002   0.000586   0.001725   0.000001
   66  CU12  S   -0.000000   0.000025  -0.004305  -0.012488  -0.000011
   67  CU12  X   -0.000000   0.000016  -0.000947  -0.002111  -0.000002
   68  CU12  Y    0.000002   0.000000  -0.000001  -0.000002   0.000643
   69  CU12  Z    0.000000  -0.000011   0.000702   0.002041   0.000002
   70  CU12  S   -0.000001   0.001251  -0.026822  -0.068491  -0.000059
   71  CU12  X   -0.000003   0.002547  -0.021322  -0.039604  -0.000047
   72  CU12  Y    0.000415   0.000002  -0.000018  -0.000047   0.014461
   73  CU12  Z    0.000002  -0.001473   0.015807   0.040082   0.000035
   74  CU12  S   -0.000067   0.057929  -0.236926  -0.300195  -0.000259
   75  CU12  X   -0.000128   0.110327  -0.318523  -0.204995  -0.000364
   76  CU12  Y    0.052151   0.000095  -0.000275  -0.000364   0.216036
   77  CU12  Z    0.000095  -0.029642   0.236141   0.312137   0.000269
   78  CU12  S    0.000050  -0.043205   0.359701   0.232377   0.000201
   79  CU12  X   -0.000073   0.062435  -0.438725   0.014133  -0.000245
   80  CU12  Y    0.074625   0.000054  -0.000379  -0.000245   0.297562
   81  CU12  Z    0.000054   0.028339   0.325254   0.210124   0.000181
   82  CU12 XX    0.000001  -0.000524   0.016718   0.042208   0.000040
   83  CU12 YY    0.000000  -0.000157   0.013514   0.037675   0.000029
   84  CU12 ZZ    0.000000  -0.000295   0.015275   0.042555   0.000037
   85  CU12 XY   -0.000074  -0.000001   0.000005   0.000010  -0.003765
   86  CU12 XZ   -0.000001   0.000397  -0.004115  -0.008611  -0.000010
   87  CU12 YZ    0.000055   0.000000  -0.000004  -0.000010   0.002791
   88  CU12 XX    0.000022  -0.018930   0.084519   0.145385   0.000172
   89  CU12 YY   -0.000002  -0.002561   0.045028   0.105994   0.000045
   90  CU12 ZZ    0.000013  -0.007350   0.066733   0.157087   0.000136
   91  CU12 XY   -0.004915  -0.000024   0.000059   0.000099  -0.046392
   92  CU12 XZ   -0.000024   0.016104  -0.050709  -0.084974  -0.000103
   93  CU12 YZ    0.003644   0.000014  -0.000044  -0.000103   0.034393

                     36         37         38         39         40

   36  C  4  Z    1.000000
   37  C  5  S   -0.062822   1.000000
   38  C  5  S   -0.278932   0.219059   1.000000
   39  C  5  X    0.003361  -0.000000  -0.000000   1.000000
   40  C  5  Y   -0.183677  -0.000000  -0.000000   0.000000   1.000000
   41  C  5  Z    0.113889   0.000000   0.000000   0.000000  -0.000000
   42  C  5  S   -0.308157   0.184261   0.812273  -0.000000  -0.000000
   43  C  5  X    0.005296   0.000000  -0.000000   0.569754   0.000000
   44  C  5  Y   -0.289401   0.000000  -0.000000   0.000000   0.569754
   45  C  5  Z    0.377073  -0.000000  -0.000000   0.000000   0.000000
   46  C  6  S   -0.019304   0.000002   0.014214  -0.000888   0.001262
   47  C  6  S   -0.141868   0.014214   0.172074  -0.006760   0.009604
   48  C  6  X   -0.001178   0.000888   0.006760   0.094975   0.000428
   49  C  6  Y   -0.082867  -0.001262  -0.009604   0.000428   0.094668
   50  C  6  Z   -0.116979   0.032494   0.247250  -0.011009   0.015640
   51  C  6  S   -0.281421   0.057874   0.330861  -0.006666   0.009470
   52  C  6  X   -0.003587   0.003340   0.014845   0.222411   0.000443
   53  C  6  Y   -0.252327  -0.004745  -0.021089   0.000443   0.222094
   54  C  6  Z   -0.295764   0.122157   0.542916  -0.011392   0.016184
   55  H  7  S   -0.008168   0.000030   0.006554  -0.000376  -0.005572
   56  H  7  S   -0.067121   0.012942   0.101684  -0.002806  -0.041579
   57  H  8  S   -0.018417   0.034775   0.282455  -0.005519  -0.333719
   58  H  8  S   -0.040991   0.093747   0.482379  -0.003883  -0.234758
   59  H  9  S    0.515895   0.000032   0.006688  -0.000224   0.008143
   60  H  9  S    0.580426   0.013081   0.102541  -0.001655   0.060042
   61  H 10  S   -0.018306   0.000000   0.000005  -0.000000   0.000015
   62  H 10  S   -0.040742   0.000281   0.004896  -0.000042   0.007445
   63  H 11  S   -0.008164   0.000000   0.000000  -0.000000   0.000001
   64  H 11  S   -0.067089   0.000051   0.001269  -0.000034   0.001834
   65  CU12  S   -0.001279   0.000000   0.000001   0.000004   0.000003
   66  CU12  S    0.009258  -0.000000  -0.000013  -0.000042  -0.000027
   67  CU12  X    0.002041  -0.000000  -0.000008  -0.000025  -0.000018
   68  CU12  Y    0.000002  -0.000000  -0.000005  -0.000018  -0.000009
   69  CU12  Z   -0.000871   0.000000   0.000003   0.000010   0.000006
   70  CU12  S    0.050777  -0.000001  -0.000944  -0.001944  -0.001254
   71  CU12  X    0.040082  -0.000006  -0.001914  -0.003421  -0.002518
   72  CU12  Y    0.000035  -0.000004  -0.001235  -0.002518  -0.001144
   73  CU12  Z   -0.015254   0.000002   0.000699   0.001426   0.000920
   74  CU12  S    0.222553  -0.013474  -0.102521  -0.081158  -0.052375
   75  CU12  X    0.312137  -0.029995  -0.186786  -0.098110  -0.098719
   76  CU12  Y    0.000269  -0.019357  -0.120542  -0.098719  -0.008847
   77  CU12  Z   -0.015371   0.010962   0.068265   0.055906   0.036079
   78  CU12  S   -0.172276   0.029620   0.181306   0.058764   0.037923
   79  CU12  X    0.210124  -0.045246  -0.256190  -0.007794  -0.054164
   80  CU12  Y    0.000181  -0.029200  -0.165332  -0.054164   0.041181
   81  CU12  Z    0.141784   0.016536   0.093630   0.030674   0.019795
   82  CU12 XX   -0.034514   0.000000   0.000300   0.000741   0.000545
   83  CU12 YY   -0.027931   0.000000   0.000178   0.000502   0.000257
   84  CU12 ZZ   -0.028326   0.000000   0.000119   0.000336   0.000217
   85  CU12 XY   -0.000010   0.000000   0.000234   0.000599   0.000334
   86  CU12 XZ    0.004688  -0.000000  -0.000132  -0.000339  -0.000240
   87  CU12 YZ    0.000004  -0.000000  -0.000085  -0.000240  -0.000122
   88  CU12 XX   -0.147497   0.000086   0.014773   0.021967   0.018333
   89  CU12 YY   -0.078580   0.000036   0.007364   0.014117   0.004954
   90  CU12 ZZ   -0.076744   0.000012   0.003773   0.007188   0.004639
   91  CU12 XY   -0.000103   0.000095   0.014191   0.023776   0.012089
   92  CU12 XZ    0.042103  -0.000054  -0.008037  -0.013465  -0.010005
   93  CU12 YZ    0.000036  -0.000035  -0.005186  -0.010005  -0.004418

                     41         42         43         44         45

   41  C  5  Z    1.000000
   42  C  5  S    0.000000   1.000000
   43  C  5  X    0.000000   0.000000   1.000000
   44  C  5  Y    0.000000   0.000000   0.000000   1.000000
   45  C  5  Z    0.569754   0.000000   0.000000   0.000000   1.000000
   46  C  6  S   -0.032494   0.057874  -0.003340   0.004745  -0.122157
   47  C  6  S   -0.247250   0.330861  -0.014845   0.021089  -0.542916
   48  C  6  X   -0.011009   0.006666   0.222411   0.000443  -0.011392
   49  C  6  Y    0.015640  -0.009470   0.000443   0.222094   0.016184
   50  C  6  Z   -0.307373   0.243803  -0.011392   0.016184  -0.193918
   51  C  6  S   -0.243803   0.548549  -0.016418   0.023325  -0.600468
   52  C  6  X   -0.011392   0.016418   0.548058   0.000698  -0.017972
   53  C  6  Y    0.016184  -0.023325   0.000698   0.547557   0.025532
   54  C  6  Z   -0.193918   0.600468  -0.017972   0.025532  -0.108751
   55  H  7  S   -0.013194   0.068002  -0.004834  -0.071635  -0.169615
   56  H  7  S   -0.098449   0.249079  -0.010774  -0.159668  -0.378057
   57  H  8  S    0.177659   0.382557  -0.007532  -0.455395   0.242435
   58  H  8  S    0.124976   0.710754  -0.008472  -0.512228   0.272691
   59  H  9  S    0.012110   0.068636  -0.002853   0.103511   0.153941
   60  H  9  S    0.089294   0.250488  -0.006336   0.229876   0.341869
   61  H 10  S    0.000002   0.002449  -0.000058   0.010223   0.001538
   62  H 10  S    0.001120   0.032717  -0.000472   0.083646   0.012585
   63  H 11  S   -0.000000   0.000564  -0.000042   0.002279  -0.001395
   64  H 11  S   -0.001122   0.013300  -0.000610   0.032961  -0.020175
   65  CU12  S   -0.000001   0.000633   0.001842   0.001188  -0.000673
   66  CU12  S    0.000015  -0.004645  -0.013316  -0.008594   0.004867
   67  CU12  X    0.000010  -0.001010  -0.002209  -0.001873   0.001061
   68  CU12  Y    0.000006  -0.000652  -0.001873  -0.000515   0.000684
   69  CU12  Z   -0.000002   0.000369   0.001061   0.000684   0.000306
   70  CU12  S    0.000710  -0.028676  -0.072392  -0.046718   0.026457
   71  CU12  X    0.001426  -0.022520  -0.041003  -0.036434   0.020633
   72  CU12  Y    0.000920  -0.014533  -0.036434  -0.008059   0.013316
   73  CU12  Z   -0.000040   0.008230   0.020633   0.013316   0.007913
   74  CU12  S    0.029661  -0.244909  -0.306285  -0.197661   0.111938
   75  CU12  X    0.055906  -0.325892  -0.202142  -0.274778   0.155611
   76  CU12  Y    0.036079  -0.210314  -0.274778   0.046314   0.100423
   77  CU12  Z    0.034429   0.119104   0.155611   0.100423   0.166770
   78  CU12  S   -0.021476   0.365834   0.233585   0.150743  -0.085368
   79  CU12  X    0.030674  -0.441005   0.021055  -0.181718   0.102910
   80  CU12  Y    0.019795  -0.284601  -0.181718   0.185365   0.066412
   81  CU12  Z    0.064925   0.161174   0.102910   0.066412   0.265026
   82  CU12 XX   -0.000309   0.017902   0.044653   0.031798  -0.018008
   83  CU12 YY   -0.000183   0.015938   0.043894   0.025346  -0.016042
   84  CU12 ZZ   -0.000085   0.014986   0.041287   0.026644  -0.013401
   85  CU12 XY   -0.000240   0.003762   0.007721   0.002648  -0.003765
   86  CU12 XZ    0.000046  -0.002131  -0.004373  -0.003765  -0.001868
   87  CU12 YZ    0.000030  -0.001375  -0.003765  -0.000968  -0.001206
   88  CU12 XX   -0.010382   0.088916   0.150557   0.133500  -0.075603
   89  CU12 YY   -0.005159   0.064976   0.151168   0.061217  -0.055247
   90  CU12 ZZ   -0.000273   0.053369   0.124165   0.080129  -0.024799
   91  CU12 XY   -0.010005   0.045859   0.075221   0.020088  -0.038992
   92  CU12 XZ    0.000088  -0.025970  -0.042599  -0.038992  -0.026683
   93  CU12 YZ    0.000057  -0.016760  -0.038992  -0.007342  -0.017220

                     46         47         48         49         50

   46  C  6  S    1.000000
   47  C  6  S    0.219059   1.000000
   48  C  6  X   -0.000000  -0.000000   1.000000
   49  C  6  Y   -0.000000  -0.000000   0.000000   1.000000
   50  C  6  Z   -0.000000  -0.000000   0.000000   0.000000   1.000000
   51  C  6  S    0.184261   0.812273   0.000000  -0.000000   0.000000
   52  C  6  X    0.000000   0.000000   0.569754   0.000000   0.000000
   53  C  6  Y   -0.000000  -0.000000   0.000000   0.569754   0.000000
   54  C  6  Z    0.000000   0.000000   0.000000   0.000000   0.569754
   55  H  7  S    0.034778   0.282469  -0.006482  -0.316101  -0.207390
   56  H  7  S    0.093749   0.482389  -0.004560  -0.222356  -0.145885
   57  H  8  S    0.000033   0.006826   0.000157  -0.006905   0.013168
   58  H  8  S    0.013223   0.103416   0.001144  -0.050309   0.095943
   59  H  9  S    0.000000   0.000005   0.000000   0.000005   0.000014
   60  H  9  S    0.000278   0.004855   0.000011   0.002529   0.007029
   61  H 10  S    0.000000   0.000000   0.000000   0.000001   0.000000
   62  H 10  S    0.000052   0.001271   0.000011   0.001865   0.001078
   63  H 11  S    0.000000   0.000013  -0.000000   0.000040  -0.000007
   64  H 11  S    0.000477   0.007450  -0.000074   0.010875  -0.001994
   65  CU12  S    0.000000   0.000001   0.000004   0.000002   0.000001
   66  CU12  S   -0.000000  -0.000011  -0.000038  -0.000023  -0.000014
   67  CU12  X   -0.000000  -0.000008  -0.000023  -0.000015  -0.000010
   68  CU12  Y   -0.000000  -0.000005  -0.000015  -0.000007  -0.000006
   69  CU12  Z   -0.000000  -0.000003  -0.000010  -0.000006  -0.000002
   70  CU12  S   -0.000001  -0.000870  -0.001824  -0.001101  -0.000690
   71  CU12  X   -0.000005  -0.001802  -0.003298  -0.002259  -0.001414
   72  CU12  Y   -0.000003  -0.001088  -0.002259  -0.000920  -0.000854
   73  CU12  Z   -0.000002  -0.000681  -0.001414  -0.000854  -0.000091
   74  CU12  S   -0.013035  -0.099812  -0.080605  -0.048666  -0.030465
   75  CU12  X   -0.029614  -0.185548  -0.101572  -0.093543  -0.058558
   76  CU12  Y   -0.017880  -0.112028  -0.093543  -0.003119  -0.035355
   77  CU12  Z   -0.011193  -0.070130  -0.058558  -0.035355   0.031227
   78  CU12  S    0.029274   0.179349   0.059317   0.035813   0.022419
   79  CU12  X   -0.045637  -0.258631  -0.011154  -0.052201  -0.032678
   80  CU12  Y   -0.027554  -0.156153  -0.052201   0.043788  -0.019730
   81  CU12  Z   -0.017249  -0.097752  -0.032678  -0.019730   0.062954
   82  CU12 XX    0.000000   0.000276   0.000697   0.000478   0.000299
   83  CU12 YY    0.000000   0.000152   0.000438   0.000207   0.000165
   84  CU12 ZZ    0.000000   0.000109   0.000314   0.000190   0.000083
   85  CU12 XY    0.000000   0.000203   0.000534   0.000270   0.000221
   86  CU12 XZ    0.000000   0.000127   0.000334   0.000221   0.000056
   87  CU12 YZ    0.000000   0.000077   0.000221   0.000102   0.000034
   88  CU12 XX    0.000077   0.014197   0.021739   0.016805   0.010520
   89  CU12 YY    0.000029   0.006400   0.012502   0.003869   0.004725
   90  CU12 ZZ    0.000012   0.003680   0.007154   0.004319   0.000401
   91  CU12 XY    0.000080   0.012832   0.022043   0.009955   0.009536
   92  CU12 XZ    0.000050   0.008033   0.013799   0.009536   0.000692
   93  CU12 YZ    0.000030   0.004850   0.009536   0.003763   0.000418

                     51         52         53         54         55

   51  C  6  S    1.000000
   52  C  6  X    0.000000   1.000000
   53  C  6  Y    0.000000   0.000000   1.000000
   54  C  6  Z    0.000000   0.000000   0.000000   1.000000
   55  H  7  S    0.382566  -0.008846  -0.431338  -0.282996   1.000000
   56  H  7  S    0.710764  -0.009949  -0.485165  -0.318311   0.658292
   57  H  8  S    0.069282   0.001974  -0.086788   0.165509   0.000500
   58  H  8  S    0.251921   0.004367  -0.192026   0.366203   0.034686
   59  H  9  S    0.002427   0.000016   0.003471   0.009647   0.000000
   60  H  9  S    0.032533   0.000129   0.028504   0.079211   0.000112
   61  H 10  S    0.000566   0.000014   0.002317   0.001340   0.000000
   62  H 10  S    0.013316   0.000197   0.033493   0.019371   0.000009
   63  H 11  S    0.003870  -0.000105   0.015406  -0.002825   0.000000
   64  H 11  S    0.043294  -0.000720   0.105493  -0.019348   0.000253
   65  CU12  S    0.000607   0.001802   0.001088   0.000681   0.000000
   66  CU12  S   -0.004456  -0.013036  -0.007871  -0.004927  -0.000000
   67  CU12  X   -0.000989  -0.002234  -0.001750  -0.001096  -0.000000
   68  CU12  Y   -0.000597  -0.001750  -0.000392  -0.000662  -0.000000
   69  CU12  Z   -0.000374  -0.001096  -0.000662   0.000251  -0.000000
   70  CU12  S   -0.027645  -0.071213  -0.042996  -0.026915  -0.000002
   71  CU12  X   -0.022162  -0.041788  -0.034227  -0.021426  -0.000006
   72  CU12  Y   -0.013380  -0.034227  -0.005763  -0.012937  -0.000006
   73  CU12  Z   -0.008376  -0.021426  -0.012937   0.006804  -0.000004
   74  CU12  S   -0.240506  -0.307181  -0.185466  -0.116102  -0.013196
   75  CU12  X   -0.326344  -0.215668  -0.262706  -0.164455  -0.025974
   76  CU12  Y   -0.197036  -0.262706   0.060830  -0.099292  -0.027613
   77  CU12  Z   -0.123345  -0.164455  -0.099292   0.157286  -0.017649
   78  CU12  S    0.362462   0.236185   0.142601   0.089268   0.069948
   79  CU12  X   -0.445915   0.009283  -0.175433  -0.109821  -0.104118
   80  CU12  Y   -0.269229  -0.175433   0.193926  -0.066307  -0.110689
   81  CU12  Z   -0.168538  -0.109821  -0.066307   0.258339  -0.070748
   82  CU12 XX    0.017336   0.044161   0.029399   0.018404   0.000000
   83  CU12 YY    0.015195   0.042709   0.023051   0.016142   0.000000
   84  CU12 ZZ    0.014448   0.040622   0.024526   0.013641   0.000000
   85  CU12 XY    0.003523   0.007477   0.002021   0.003721   0.000000
   86  CU12 XZ    0.002205   0.004681   0.003721  -0.001594   0.000000
   87  CU12 YZ    0.001332   0.003721   0.000764  -0.000962   0.000000
   88  CU12 XX    0.087612   0.152460   0.125595   0.078623   0.000055
   89  CU12 YY    0.061360   0.145688   0.054417   0.055064   0.000061
   90  CU12 ZZ    0.052202   0.123944   0.074833   0.025847   0.000028
   91  CU12 XY    0.043202   0.073524   0.013816   0.038769   0.000090
   92  CU12 XZ    0.027045   0.046026   0.038769  -0.023846   0.000057
   93  CU12 YZ    0.016329   0.038769   0.005222  -0.014397   0.000061

                     56         57         58         59         60

   56  H  7  S    1.000000
   57  H  8  S    0.034686   1.000000
   58  H  8  S    0.163260   0.658292   1.000000
   59  H  9  S    0.000112   0.000476   0.034013   1.000000
   60  H  9  S    0.004642   0.034013   0.161296   0.658292   1.000000
   61  H 10  S    0.000009   0.000000   0.000112   0.000476   0.034017
   62  H 10  S    0.000982   0.000112   0.004639   0.034017   0.161306
   63  H 11  S    0.000253   0.000000   0.000009   0.000000   0.000112
   64  H 11  S    0.007694   0.000009   0.000981   0.000112   0.004642
   65  CU12  S    0.000062   0.000000   0.000063   0.000000   0.000058
   66  CU12  S   -0.000469  -0.000000  -0.000475  -0.000000  -0.000436
   67  CU12  X   -0.000100  -0.000000  -0.000099  -0.000000  -0.000092
   68  CU12  Y   -0.000106  -0.000000  -0.000113  -0.000000  -0.000000
   69  CU12  Z   -0.000068   0.000000   0.000062   0.000000   0.000120
   70  CU12  S   -0.003756  -0.000002  -0.003798  -0.000002  -0.003525
   71  CU12  X   -0.002970  -0.000006  -0.002939  -0.000005  -0.002755
   72  CU12  Y   -0.003157  -0.000006  -0.003355  -0.000000  -0.000003
   73  CU12  Z   -0.002018   0.000004   0.001850   0.000006   0.003582
   74  CU12  S   -0.085005  -0.013318  -0.085505  -0.012533  -0.082235
   75  CU12  X   -0.110991  -0.025653  -0.109271  -0.024364  -0.106004
   76  CU12  Y   -0.117996  -0.029289  -0.124761  -0.000025  -0.000110
   77  CU12  Z   -0.075419   0.016150   0.068792   0.031686   0.137864
   78  CU12  S    0.215869   0.070198   0.216506   0.068552   0.212303
   79  CU12  X   -0.265445  -0.102259  -0.260545  -0.100791  -0.257866
   80  CU12  Y   -0.282198  -0.116756  -0.297480  -0.000104  -0.000267
   81  CU12  Z   -0.180371   0.064378   0.164029   0.131084   0.335371
   82  CU12 XX    0.001961   0.000000   0.001969   0.000000   0.001821
   83  CU12 YY    0.002008   0.000000   0.002076   0.000000   0.001489
   84  CU12 ZZ    0.001765   0.000000   0.001756   0.000000   0.002050
   85  CU12 XY    0.000670   0.000000   0.000698   0.000000   0.000001
   86  CU12 XZ    0.000428  -0.000000  -0.000385  -0.000000  -0.000747
   87  CU12 YZ    0.000455  -0.000000  -0.000439  -0.000000  -0.000001
   88  CU12 XX    0.013396   0.000054   0.013277   0.000046   0.012487
   89  CU12 YY    0.014192   0.000069   0.015072   0.000005   0.006868
   90  CU12 ZZ    0.010108   0.000025   0.009707   0.000074   0.016373
   91  CU12 XY    0.011251   0.000095   0.011694   0.000000   0.000010
   92  CU12 XZ    0.007191  -0.000052  -0.006448  -0.000092  -0.012658
   93  CU12 YZ    0.007645  -0.000060  -0.007362  -0.000000  -0.000013

                     61         62         63         64         65

   61  H 10  S    1.000000
   62  H 10  S    0.658292   1.000000
   63  H 11  S    0.000500   0.034685   1.000000
   64  H 11  S    0.034685   0.163258   0.658292   1.000000
   65  CU12  S    0.000000   0.000063   0.000000   0.000062   1.000000
   66  CU12  S   -0.000000  -0.000474  -0.000000  -0.000468  -0.284749
   67  CU12  X   -0.000000  -0.000099  -0.000000  -0.000100  -0.000000
   68  CU12  Y    0.000000   0.000113   0.000000   0.000106  -0.000000
   69  CU12  Z    0.000000   0.000062  -0.000000  -0.000068   0.000000
   70  CU12  S   -0.000002  -0.003795  -0.000002  -0.003750  -0.014573
   71  CU12  X   -0.000006  -0.002941  -0.000006  -0.002970   0.000000
   72  CU12  Y    0.000006   0.003347   0.000006   0.003149   0.000000
   73  CU12  Z    0.000003   0.001850  -0.000004  -0.002013  -0.000000
   74  CU12  S   -0.013307  -0.085461  -0.013179  -0.084932   0.006666
   75  CU12  X   -0.025677  -0.109405  -0.025985  -0.111093  -0.000000
   76  CU12  Y    0.029223   0.124512   0.027554   0.117798  -0.000000
   77  CU12  Z    0.016155   0.068833  -0.017609  -0.075281   0.000000
   78  CU12  S    0.070176   0.216450   0.069911   0.215775   0.006536
   79  CU12  X   -0.102407  -0.260935  -0.104250  -0.265807   0.000000
   80  CU12  Y    0.116547   0.296964   0.110542   0.281848   0.000000
   81  CU12  Z    0.064430   0.164169  -0.070644  -0.180120   0.000000
   82  CU12 XX    0.000000   0.001968   0.000000   0.001958   0.022355
   83  CU12 YY    0.000000   0.002073   0.000000   0.002004   0.022355
   84  CU12 ZZ    0.000000   0.001755   0.000000   0.001761   0.022355
   85  CU12 XY   -0.000000  -0.000697  -0.000000  -0.000670   0.000000
   86  CU12 XZ   -0.000000  -0.000386   0.000000   0.000428  -0.000000
   87  CU12 YZ    0.000000   0.000439  -0.000000  -0.000454  -0.000000
   88  CU12 XX    0.000054   0.013285   0.000055   0.013398   0.000311
   89  CU12 YY    0.000068   0.015035   0.000061   0.014159   0.000311
   90  CU12 ZZ    0.000025   0.009703   0.000028   0.010087   0.000311
   91  CU12 XY   -0.000095  -0.011687  -0.000090  -0.011245   0.000000
   92  CU12 XZ   -0.000052  -0.006461   0.000057   0.007186  -0.000000
   93  CU12 YZ    0.000060   0.007353  -0.000061  -0.007620  -0.000000

                     66         67         68         69         70

   66  CU12  S    1.000000
   67  CU12  X   -0.000000   1.000000
   68  CU12  Y    0.000000   0.000000   1.000000
   69  CU12  Z    0.000000  -0.000000  -0.000000   1.000000
   70  CU12  S    0.376376   0.000000   0.000000   0.000000   1.000000
   71  CU12  X   -0.000000   0.347756   0.000000   0.000000   0.000000
   72  CU12  Y   -0.000000   0.000000   0.347756  -0.000000  -0.000000
   73  CU12  Z    0.000000   0.000000  -0.000000   0.347756   0.000000
[...]
   52  C  6  X    0.000000   0.000000   0.000001   0.000000   0.000000
   53  C  6  Y    0.000000   0.000000   0.000000   0.000000   0.000000
   54  C  6  Z    0.000000   0.000000   0.000000   0.000000   0.000000
   55  H  7  S    0.000000   0.000000   0.000000   0.000000   0.000000
   56  H  7  S    0.000000   0.000000   0.000000   0.000000   0.000000
   57  H  8  S    0.000000   0.000000   0.000000   0.000000   0.000000
   58  H  8  S    0.000000   0.000000   0.000000   0.000000   0.000000
   59  H  9  S    0.000000   0.000000   0.000000   0.000000   0.000000
   60  H  9  S    0.000000   0.000000   0.000000   0.000000   0.000000
   61  H 10  S    0.000000   0.000000   0.000000   0.000000   0.000000
   62  H 10  S    0.000000   0.000000   0.000000   0.000000   0.000000
   63  H 11  S    0.000000   0.000000   0.000000   0.000000   0.000000
   64  H 11  S    0.000000   0.000000   0.000000   0.000000   0.000000
   65  CU12  S    0.000000   0.000930   0.003235   0.001953   0.001223
   66  CU12  S    0.000000  -0.000001  -0.000004  -0.000003  -0.000002
   67  CU12  X    0.000000   0.000000   0.000000   0.000000   0.000000
   68  CU12  Y    0.000000   0.000000   0.000000   0.000000   0.000000
   69  CU12  Z    0.000000   0.000000   0.000000   0.000000   0.000000
   70  CU12  S    0.000000  -0.000000  -0.000001  -0.000000  -0.000000
   71  CU12  X    0.000000   0.000000   0.000000   0.000000   0.000000
   72  CU12  Y    0.000000   0.000000   0.000000   0.000000   0.000000
   73  CU12  Z    0.000000   0.000000   0.000000   0.000000   0.000000
   74  CU12  S    0.000000   0.000001   0.000003   0.000002   0.000001
   75  CU12  X    0.000000   0.000000   0.000000   0.000000   0.000000
   76  CU12  Y    0.000000   0.000000   0.000000   0.000000   0.000000
   77  CU12  Z    0.000000   0.000000   0.000000   0.000000   0.000000
   78  CU12  S    0.000000   0.000001   0.000003   0.000002   0.000001
   79  CU12  X    0.000000   0.000000   0.000000   0.000000   0.000000
   80  CU12  Y    0.000000   0.000000   0.000000   0.000000   0.000000
   81  CU12  Z    0.000000   0.000000   0.000000   0.000000   0.000000
   82  CU12 XX    0.000000   0.000000   0.000000   0.000000   0.000000
   83  CU12 YY    0.000000   0.000000   0.000000   0.000000   0.000000
   84  CU12 ZZ    0.000000   0.000000   0.000000   0.000000   0.000000
   85  CU12 XY    0.000000   0.000000   0.000000   0.000000   0.000000
   86  CU12 XZ    0.000000   0.000000   0.000000   0.000000   0.000000
   87  CU12 YZ    0.000000   0.000000   0.000000   0.000000   0.000000
   88  CU12 XX    0.000000   0.000000   0.000000   0.000000   0.000000
   89  CU12 YY    0.000000   0.000000   0.000000   0.000000   0.000000
   90  CU12 ZZ    0.000000   0.000000   0.000000   0.000000   0.000000
   91  CU12 XY    0.000000   0.000000   0.000000   0.000000   0.000000
   92  CU12 XZ    0.000000   0.000000   0.000000   0.000000   0.000000
   93  CU12 YZ    0.000000   0.000000   0.000000   0.000000   0.000000

                     51         52         53         54         55

   51  C  6  S    0.000045
   52  C  6  X    0.000133   0.000396
   53  C  6  Y    0.000080   0.000239   0.000144
   54  C  6  Z    0.000050   0.000150   0.000090   0.000057
   55  H  7  S    0.000000   0.000000   0.000000   0.000000   0.000000
   56  H  7  S    0.000005   0.000014   0.000008   0.000005   0.000000
   57  H  8  S    0.000000   0.000000   0.000000   0.000000   0.000000
   58  H  8  S    0.000005   0.000014   0.000008   0.000005   0.000000
   59  H  9  S    0.000000   0.000000   0.000000   0.000000   0.000000
   60  H  9  S    0.000004   0.000013   0.000008   0.000005   0.000000
   61  H 10  S    0.000000   0.000000   0.000000   0.000000   0.000000
   62  H 10  S    0.000005   0.000014   0.000008   0.000005   0.000000
   63  H 11  S    0.000000   0.000000   0.000000   0.000000   0.000000
   64  H 11  S    0.000005   0.000014   0.000008   0.000005   0.000000
   65  CU12  S    0.564323   1.678457   1.013398   0.634389   0.000000
   66  CU12  S   -0.000726  -0.002159  -0.001303  -0.000816  -0.000000
   67  CU12  X    0.000000   0.000000   0.000000   0.000000   0.000000
   68  CU12  Y    0.000000   0.000000   0.000000   0.000000   0.000000
   69  CU12  Z    0.000000   0.000000   0.000000   0.000000   0.000000
   70  CU12  S   -0.000110  -0.000328  -0.000198  -0.000124  -0.000000
   71  CU12  X    0.000000   0.000000   0.000000   0.000000   0.000000
   72  CU12  Y    0.000000   0.000000   0.000000   0.000000   0.000000
   73  CU12  Z    0.000000   0.000000   0.000000   0.000000   0.000000
   74  CU12  S    0.000522   0.001553   0.000938   0.000587   0.000000
   75  CU12  X    0.000000   0.000000   0.000000   0.000000   0.000000
   76  CU12  Y    0.000000   0.000000   0.000000   0.000000   0.000000
   77  CU12  Z    0.000000   0.000000   0.000000   0.000000   0.000000
   78  CU12  S    0.000484   0.001439   0.000869   0.000544   0.000000
   79  CU12  X    0.000000   0.000000   0.000000   0.000000   0.000000
   80  CU12  Y    0.000000   0.000000   0.000000   0.000000   0.000000
   81  CU12  Z    0.000000   0.000000   0.000000   0.000000   0.000000
   82  CU12 XX    0.000000   0.000000   0.000000   0.000000   0.000000
   83  CU12 YY    0.000000   0.000000   0.000000   0.000000   0.000000
   84  CU12 ZZ    0.000000   0.000000   0.000000   0.000000   0.000000
   85  CU12 XY    0.000000   0.000000   0.000000   0.000000   0.000000
   86  CU12 XZ    0.000000   0.000000   0.000000   0.000000   0.000000
   87  CU12 YZ    0.000000   0.000000   0.000000   0.000000   0.000000
   88  CU12 XX    0.000000   0.000000   0.000000   0.000000   0.000000
   89  CU12 YY    0.000000   0.000000   0.000000   0.000000   0.000000
   90  CU12 ZZ    0.000000   0.000000   0.000000   0.000000   0.000000
   91  CU12 XY    0.000000   0.000000   0.000000   0.000000   0.000000
   92  CU12 XZ    0.000000   0.000000   0.000000   0.000000   0.000000
   93  CU12 YZ    0.000000   0.000000   0.000000   0.000000   0.000000

                     56         57         58         59         60

   56  H  7  S    0.000000
   57  H  8  S    0.000000   0.000000
   58  H  8  S    0.000000   0.000000   0.000000
   59  H  9  S    0.000000   0.000000   0.000000   0.000000
   60  H  9  S    0.000000   0.000000   0.000000   0.000000   0.000000
   61  H 10  S    0.000000   0.000000   0.000000   0.000000   0.000000
   62  H 10  S    0.000000   0.000000   0.000000   0.000000   0.000000
   63  H 11  S    0.000000   0.000000   0.000000   0.000000   0.000000
   64  H 11  S    0.000000   0.000000   0.000000   0.000000   0.000000
   65  CU12  S    0.057391   0.000000   0.058142   0.000000   0.053329
   66  CU12  S   -0.000074  -0.000000  -0.000075  -0.000000  -0.000069
   67  CU12  X    0.000000   0.000000   0.000000   0.000000   0.000000
   68  CU12  Y    0.000000   0.000000   0.000000   0.000000   0.000000
   69  CU12  Z    0.000000   0.000000   0.000000   0.000000   0.000000
   70  CU12  S   -0.000011  -0.000000  -0.000011  -0.000000  -0.000010
   71  CU12  X    0.000000   0.000000   0.000000   0.000000   0.000000
   72  CU12  Y    0.000000   0.000000   0.000000   0.000000   0.000000
   73  CU12  Z    0.000000   0.000000   0.000000   0.000000   0.000000
   74  CU12  S    0.000053   0.000000   0.000054   0.000000   0.000049
   75  CU12  X    0.000000   0.000000   0.000000   0.000000   0.000000
   76  CU12  Y    0.000000   0.000000   0.000000   0.000000   0.000000
   77  CU12  Z    0.000000   0.000000   0.000000   0.000000   0.000000
   78  CU12  S    0.000049   0.000000   0.000050   0.000000   0.000046
   79  CU12  X    0.000000   0.000000   0.000000   0.000000   0.000000
   80  CU12  Y    0.000000   0.000000   0.000000   0.000000   0.000000
   81  CU12  Z    0.000000   0.000000   0.000000   0.000000   0.000000
   82  CU12 XX    0.000000   0.000000   0.000000   0.000000   0.000000
   83  CU12 YY    0.000000   0.000000   0.000000   0.000000   0.000000
   84  CU12 ZZ    0.000000   0.000000   0.000000   0.000000   0.000000
   85  CU12 XY    0.000000   0.000000   0.000000   0.000000   0.000000
   86  CU12 XZ    0.000000   0.000000   0.000000   0.000000   0.000000
   87  CU12 YZ    0.000000   0.000000   0.000000   0.000000   0.000000
   88  CU12 XX    0.000000   0.000000   0.000000   0.000000   0.000000
   89  CU12 YY    0.000000   0.000000   0.000000   0.000000   0.000000
   90  CU12 ZZ    0.000000   0.000000   0.000000   0.000000   0.000000
   91  CU12 XY    0.000000   0.000000   0.000000   0.000000   0.000000
   92  CU12 XZ    0.000000   0.000000   0.000000   0.000000   0.000000
   93  CU12 YZ    0.000000   0.000000   0.000000   0.000000   0.000000

                     61         62         63         64         65

   61  H 10  S    0.000000
   62  H 10  S    0.000000   0.000000
   63  H 11  S    0.000000   0.000000   0.000000
   64  H 11  S    0.000000   0.000000   0.000000   0.000000
   65  CU12  S    0.000000   0.058076   0.000000   0.0572827114.506843
   66  CU12  S   -0.000000  -0.000075  -0.000000  -0.000074  -9.149979
   67  CU12  X    0.000000   0.000000   0.000000   0.000000   0.000000
   68  CU12  Y    0.000000   0.000000   0.000000   0.000000   0.000000
   69  CU12  Z    0.000000   0.000000   0.000000   0.000000   0.000000
   70  CU12  S   -0.000000  -0.000011  -0.000000  -0.000011  -1.388653
   71  CU12  X    0.000000   0.000000   0.000000   0.000000   0.000000
   72  CU12  Y    0.000000   0.000000   0.000000   0.000000   0.000000
   73  CU12  Z    0.000000   0.000000   0.000000   0.000000   0.000000
   74  CU12  S    0.000000   0.000054   0.000000   0.000053   6.582283
   75  CU12  X    0.000000   0.000000   0.000000   0.000000   0.000000
   76  CU12  Y    0.000000   0.000000   0.000000   0.000000   0.000000
   77  CU12  Z    0.000000   0.000000   0.000000   0.000000   0.000000
   78  CU12  S    0.000000   0.000050   0.000000   0.000049   6.100264
   79  CU12  X    0.000000   0.000000   0.000000   0.000000   0.000000
   80  CU12  Y    0.000000   0.000000   0.000000   0.000000   0.000000
   81  CU12  Z    0.000000   0.000000   0.000000   0.000000   0.000000
   82  CU12 XX    0.000000   0.000000   0.000000   0.000000   0.000000
   83  CU12 YY    0.000000   0.000000   0.000000   0.000000   0.000000
   84  CU12 ZZ    0.000000   0.000000   0.000000   0.000000   0.000000
   85  CU12 XY    0.000000   0.000000   0.000000   0.000000   0.000000
   86  CU12 XZ    0.000000   0.000000   0.000000   0.000000   0.000000
   87  CU12 YZ    0.000000   0.000000   0.000000   0.000000   0.000000
   88  CU12 XX    0.000000   0.000000   0.000000   0.000000   0.000000
   89  CU12 YY    0.000000   0.000000   0.000000   0.000000   0.000000
   90  CU12 ZZ    0.000000   0.000000   0.000000   0.000000   0.000000
   91  CU12 XY    0.000000   0.000000   0.000000   0.000000   0.000000
   92  CU12 XZ    0.000000   0.000000   0.000000   0.000000   0.000000
   93  CU12 YZ    0.000000   0.000000   0.000000   0.000000   0.000000

                     66         67         68         69         70

   66  CU12  S    0.011768
   67  CU12  X    0.000000   0.000000
   68  CU12  Y    0.000000   0.000000   0.000000
   69  CU12  Z    0.000000   0.000000   0.000000   0.000000
   70  CU12  S    0.001786   0.000000   0.000000   0.000000   0.000271
   71  CU12  X    0.000000   0.000000   0.000000   0.000000   0.000000
   72  CU12  Y    0.000000   0.000000   0.000000   0.000000   0.000000
   73  CU12  Z    0.000000   0.000000   0.000000   0.000000   0.000000
   74  CU12  S   -0.008465   0.000000   0.000000   0.000000  -0.001285
   75  CU12  X    0.000000   0.000000   0.000000   0.000000   0.000000
   76  CU12  Y    0.000000   0.000000   0.000000   0.000000   0.000000
   77  CU12  Z    0.000000   0.000000   0.000000   0.000000   0.000000
   78  CU12  S   -0.007846   0.000000   0.000000   0.000000  -0.001191
   79  CU12  X    0.000000   0.000000   0.000000   0.000000   0.000000
   80  CU12  Y    0.000000   0.000000   0.000000   0.000000   0.000000
   81  CU12  Z    0.000000   0.000000   0.000000   0.000000   0.000000
   82  CU12 XX    0.000000   0.000000   0.000000   0.000000   0.000000
   83  CU12 YY    0.000000   0.000000   0.000000   0.000000   0.000000
   84  CU12 ZZ    0.000000   0.000000   0.000000   0.000000   0.000000
   85  CU12 XY    0.000000   0.000000   0.000000   0.000000   0.000000
   86  CU12 XZ    0.000000   0.000000   0.000000   0.000000   0.000000
   87  CU12 YZ    0.000000   0.000000   0.000000   0.000000   0.000000
   88  CU12 XX    0.000000   0.000000   0.000000   0.000000   0.000000
   89  CU12 YY    0.000000   0.000000   0.000000   0.000000   0.000000
   90  CU12 ZZ    0.000000   0.000000   0.000000   0.000000   0.000000
   91  CU12 XY    0.000000   0.000000   0.000000   0.000000   0.000000
   92  CU12 XZ    0.000000   0.000000   0.000000   0.000000   0.000000
   93  CU12 YZ    0.000000   0.000000   0.000000   0.000000   0.000000

                     71         72         73         74         75

   71  CU12  X    0.000000
   72  CU12  Y    0.000000   0.000000
   73  CU12  Z    0.000000   0.000000   0.000000
   74  CU12  S    0.000000   0.000000   0.000000   0.006090
   75  CU12  X    0.000000   0.000000   0.000000   0.000000   0.000000
   76  CU12  Y    0.000000   0.000000   0.000000   0.000000   0.000000
   77  CU12  Z    0.000000   0.000000   0.000000   0.000000   0.000000
   78  CU12  S    0.000000   0.000000   0.000000   0.005644   0.000000
   79  CU12  X    0.000000   0.000000   0.000000   0.000000   0.000000
   80  CU12  Y    0.000000   0.000000   0.000000   0.000000   0.000000
   81  CU12  Z    0.000000   0.000000   0.000000   0.000000   0.000000
   82  CU12 XX    0.000000   0.000000   0.000000   0.000000   0.000000
   83  CU12 YY    0.000000   0.000000   0.000000   0.000000   0.000000
   84  CU12 ZZ    0.000000   0.000000   0.000000   0.000000   0.000000
   85  CU12 XY    0.000000   0.000000   0.000000   0.000000   0.000000
   86  CU12 XZ    0.000000   0.000000   0.000000   0.000000   0.000000
   87  CU12 YZ    0.000000   0.000000   0.000000   0.000000   0.000000
   88  CU12 XX    0.000000   0.000000   0.000000   0.000000   0.000000
   89  CU12 YY    0.000000   0.000000   0.000000   0.000000   0.000000
   90  CU12 ZZ    0.000000   0.000000   0.000000   0.000000   0.000000
   91  CU12 XY    0.000000   0.000000   0.000000   0.000000   0.000000
   92  CU12 XZ    0.000000   0.000000   0.000000   0.000000   0.000000
   93  CU12 YZ    0.000000   0.000000   0.000000   0.000000   0.000000

                     76         77         78         79         80

   76  CU12  Y    0.000000
   77  CU12  Z    0.000000   0.000000
   78  CU12  S    0.000000   0.000000   0.005231
   79  CU12  X    0.000000   0.000000   0.000000   0.000000
   80  CU12  Y    0.000000   0.000000   0.000000   0.000000   0.000000
   81  CU12  Z    0.000000   0.000000   0.000000   0.000000   0.000000
   82  CU12 XX    0.000000   0.000000   0.000000   0.000000   0.000000
   83  CU12 YY    0.000000   0.000000   0.000000   0.000000   0.000000
   84  CU12 ZZ    0.000000   0.000000   0.000000   0.000000   0.000000
   85  CU12 XY    0.000000   0.000000   0.000000   0.000000   0.000000
   86  CU12 XZ    0.000000   0.000000   0.000000   0.000000   0.000000
   87  CU12 YZ    0.000000   0.000000   0.000000   0.000000   0.000000
   88  CU12 XX    0.000000   0.000000   0.000000   0.000000   0.000000
   89  CU12 YY    0.000000   0.000000   0.000000   0.000000   0.000000
   90  CU12 ZZ    0.000000   0.000000   0.000000   0.000000   0.000000
   91  CU12 XY    0.000000   0.000000   0.000000   0.000000   0.000000
   92  CU12 XZ    0.000000   0.000000   0.000000   0.000000   0.000000
   93  CU12 YZ    0.000000   0.000000   0.000000   0.000000   0.000000

                     81         82         83         84         85

   81  CU12  Z    0.000000
   82  CU12 XX    0.000000   0.000000
   83  CU12 YY    0.000000   0.000000   0.000000
   84  CU12 ZZ    0.000000   0.000000   0.000000   0.000000
   85  CU12 XY    0.000000   0.000000   0.000000   0.000000   0.000000
   86  CU12 XZ    0.000000   0.000000   0.000000   0.000000   0.000000
   87  CU12 YZ    0.000000   0.000000   0.000000   0.000000   0.000000
   88  CU12 XX    0.000000   0.000000   0.000000   0.000000   0.000000
   89  CU12 YY    0.000000   0.000000   0.000000   0.000000   0.000000
   90  CU12 ZZ    0.000000   0.000000   0.000000   0.000000   0.000000
   91  CU12 XY    0.000000   0.000000   0.000000   0.000000   0.000000
   92  CU12 XZ    0.000000   0.000000   0.000000   0.000000   0.000000
   93  CU12 YZ    0.000000   0.000000   0.000000   0.000000   0.000000

                     86         87         88         89         90

   86  CU12 XZ    0.000000
   87  CU12 YZ    0.000000   0.000000
   88  CU12 XX    0.000000   0.000000   0.000000
   89  CU12 YY    0.000000   0.000000   0.000000   0.000000
   90  CU12 ZZ    0.000000   0.000000   0.000000   0.000000   0.000000
   91  CU12 XY    0.000000   0.000000   0.000000   0.000000   0.000000
   92  CU12 XZ    0.000000   0.000000   0.000000   0.000000   0.000000
   93  CU12 YZ    0.000000   0.000000   0.000000   0.000000   0.000000

                     91         92         93

   91  CU12 XY    0.000000
   92  CU12 XZ    0.000000   0.000000
   93  CU12 YZ    0.000000   0.000000   0.000000
                            SPIN DENS    ALPHA DENS     BETA DENS
    1  C            6.0     0.0000000      59.22866      -0.00051
    2  N            7.0     0.0000000      96.17081       0.00034
    3  C            6.0     0.0000000      59.19932      -0.00348
    4  C            6.0     0.0000000      59.20205      -0.00018
    5  C            6.0     0.0000000      59.19933       0.00010
    6  C            6.0     0.0000000      59.22868       0.00012
    7  H            1.0     0.0000000       0.19140       0.00025
    8  H            1.0     0.0000000       0.19000      -0.00055
    9  H            1.0     0.0000000       0.19164       0.00135
   10  H            1.0     0.0000000       0.19000      -0.00018
   11  H            1.0     0.0000000       0.19140       0.00080
   12  CU          29.0     0.0000000    7823.67719      -0.00240

          ---------------------
          ELECTROSTATIC MOMENTS
          ---------------------

 POINT   1           X           Y           Z (BOHR)    CHARGE
                 0.125918    0.000089   -0.029668        2.00 (A.U.)
         DX          DY          DZ         /D/  (DEBYE)
    -0.386084    0.000296   -0.152444    0.415091
 ...... END OF PROPERTY EVALUATION ......
 STEP CPU TIME =     0.04 TOTAL CPU TIME =          0.7 (      0.0 MIN)
 TOTAL WALL CLOCK TIME=          0.7 SECONDS, CPU UTILIZATION IS    97.14%
               580000  WORDS OF DYNAMIC MEMORY USED
 EXECUTION OF GAMESS TERMINATED NORMALLY Wed Feb  3 11:07:35 2021
 DDI: 263640 bytes (0.3 MB / 0 MWords) used by master data server.

 ----------------------------------------
 CPU timing information for all processes
 ========================================
 0: 0.610 + 0.77 = 0.688
 ----------------------------------------
Note: The following floating-point exceptions are signalling: IEEE_DENORMAL
 ddikick.x: exited gracefully.
unset echo
----- accounting info -----
Files used on the master node pl365-pro were:
-rw-r--r-- 1 rbenda matherials    142521 févr.  3 11:07 /home/rbenda/scr/rbenda/Pyridine_CU2_ion_pos1_ROHF_6-31G_1_step_print_guess_overlap.dat
-rw-r--r-- 1 rbenda matherials       659 févr.  3 11:07 /home/rbenda/scr/rbenda/Pyridine_CU2_ion_pos1_ROHF_6-31G_1_step_print_guess_overlap.F05
-rw-r--r-- 1 rbenda matherials 100268912 févr.  3 11:07 /home/rbenda/scr/rbenda/Pyridine_CU2_ion_pos1_ROHF_6-31G_1_step_print_guess_overlap.F08
-rw-r--r-- 1 rbenda matherials   2650320 févr.  3 11:07 /home/rbenda/scr/rbenda/Pyridine_CU2_ion_pos1_ROHF_6-31G_1_step_print_guess_overlap.F10
ls: No match.
ls: No match.
ls: No match.
mercredi 3 février 2021, 11:07:38 (UTC+0100)
0.0u 0.0s 0:03.91 3.8% 0+0k 304+16io 7pf+0w
