dvb                                                                     
FOpt      RB3LYP                                                      STO-3G              
Number of atoms                            I               20
Charge                                     I                0
Multiplicity                               I                1
Number of electrons                        I               70
Number of alpha electrons                  I               35
Number of beta electrons                   I               35
Number of basis functions                  I               60
Number of independant functions            I               60
Number of point charges in /Mol/           I                0
Number of translation vectors              I                0
Info1-9                                    I   N=           9
          27          27           0           0           0         110
           2          18        -501
Num ILSW                                   I              100
ILSW                                       I   N=         100
           0           0           0           0           2           0
           0           0           0           0         402      200000
           0           0          -1           0           0           0
           0      800000           0           0           1           0
           1           0           0           0     1000000           0
           0           0      100000           0          -1           0
           0           0           0           0           0           0
           0           0           0           1           0           0
           0           0           1      720000      810000           0
           0           0           0           0           0           0
           0           0           0           0           0           0
           0           0           0           0           0           0
           0           0           0           0           0           0
           0           0           0           0           0           0
           0           0           0           0           0           0
           0           0           0           0           0           0
           0           0           0           0
Number of contracted shells                I               30
Highest angular momentum                   I                1
Largest degree of contraction              I                3
Number of primitive shells                 I               90
Pure/Cartesian d shells                    I                0
Pure/Cartesian f shells                    I                0
Virial Ratio                               R      2.017190628997003E+00
SCF Energy                                 R     -3.823082690019474E+02
Total Energy                               R     -3.823082690019474E+02
RMS Force                                  R      1.665634929867660E-05
RMS Density                                R      2.811897743874517E-09
Atomic numbers                             I   N=          20
           6           6           6           6           6           6
           1           1           1           1           6           6
           1           1           1           6           6           1
           1           1
Nuclear charges                            R   N=          20
  6.00000000E+00  6.00000000E+00  6.00000000E+00  6.00000000E+00  6.00000000E+00
  6.00000000E+00  1.00000000E+00  1.00000000E+00  1.00000000E+00  1.00000000E+00
  6.00000000E+00  6.00000000E+00  1.00000000E+00  1.00000000E+00  1.00000000E+00
  6.00000000E+00  6.00000000E+00  1.00000000E+00  1.00000000E+00  1.00000000E+00
Current cartesian coordinates              R   N=          60
  2.32630922E+00  1.39602929E+00  0.00000000E+00 -5.18599300E-02  2.64897352E+00
  0.00000000E+00 -2.32630922E+00  1.28970371E+00  0.00000000E+00 -2.32630922E+00
 -1.39602929E+00  0.00000000E+00  5.18599300E-02 -2.64897352E+00  0.00000000E+00
  2.32630922E+00 -1.28970371E+00  0.00000000E+00 -9.69425007E-02  4.72461368E+00
  0.00000000E+00 -4.12688253E+00  2.31922769E+00  0.00000000E+00  9.69425007E-02
 -4.72461368E+00  0.00000000E+00  4.12688253E+00 -2.31922769E+00  0.00000000E+00
 -4.69870402E+00 -2.93893907E+00  0.00000000E+00 -7.08011302E+00 -2.05428973E+00
  0.00000000E+00 -4.38801409E+00 -4.99511254E+00  0.00000000E+00 -8.70371040E+00
 -3.34085118E+00  0.00000000E+00 -7.51985709E+00 -3.04181754E-02  0.00000000E+00
  4.69870402E+00  2.93893907E+00  0.00000000E+00  7.08011302E+00  2.05428973E+00
  0.00000000E+00  4.38801409E+00  4.99511254E+00  0.00000000E+00  8.70371040E+00
  3.34085118E+00  0.00000000E+00  7.51985709E+00  3.04181754E-02  0.00000000E+00
Int Atom Types                             I   N=          20
           0           0           0           0           0           0
           0           0           0           0           0           0
           0           0           0           0           0           0
           0           0
Force Field                                I                0
MM charges                                 R   N=          20
  0.00000000E+00  0.00000000E+00  0.00000000E+00  0.00000000E+00  0.00000000E+00
  0.00000000E+00  0.00000000E+00  0.00000000E+00  0.00000000E+00  0.00000000E+00
  0.00000000E+00  0.00000000E+00  0.00000000E+00  0.00000000E+00  0.00000000E+00
  0.00000000E+00  0.00000000E+00  0.00000000E+00  0.00000000E+00  0.00000000E+00
Integer atomic weights                     I   N=          20
          12          12          12          12          12          12
           1           1           1           1          12          12
           1           1           1          12          12           1
           1           1
Real atomic weights                        R   N=          20
  1.20000000E+01  1.20000000E+01  1.20000000E+01  1.20000000E+01  1.20000000E+01
  1.20000000E+01  1.00782504E+00  1.00782504E+00  1.00782504E+00  1.00782504E+00
  1.20000000E+01  1.20000000E+01  1.00782504E+00  1.00782504E+00  1.00782504E+00
  1.20000000E+01  1.20000000E+01  1.00782504E+00  1.00782504E+00  1.00782504E+00
Atom residue info                          I   N=          20
           0           0           0           0           0           0
           0           0           0           0           0           0
           0           0           0           0           0           0
           0           0
Atom fragment info                         I   N=          20
           0           0           0           0           0           0
           0           0           0           0           0           0
           0           0           0           0           0           0
           0           0
Atom residue num                           I   N=          20
           0           0           0           0           0           0
           0           0           0           0           0           0
           0           0           0           0           0           0
           0           0
Nuclear spins                              I   N=          20
           0           0           0           0           0           0
           1           1           1           1           0           0
           1           1           1           0           0           1
           1           1
Nuclear ZEff                               R   N=          20
 -3.60000000E+00 -3.60000000E+00 -3.60000000E+00 -3.60000000E+00 -3.60000000E+00
 -3.60000000E+00 -1.00000000E+00 -1.00000000E+00 -1.00000000E+00 -1.00000000E+00
 -3.60000000E+00 -3.60000000E+00 -1.00000000E+00 -1.00000000E+00 -1.00000000E+00
 -3.60000000E+00 -3.60000000E+00 -1.00000000E+00 -1.00000000E+00 -1.00000000E+00
Nuclear QMom                               R   N=          20
  0.00000000E+00  0.00000000E+00  0.00000000E+00  0.00000000E+00  0.00000000E+00
  0.00000000E+00  0.00000000E+00  0.00000000E+00  0.00000000E+00  0.00000000E+00
  0.00000000E+00  0.00000000E+00  0.00000000E+00  0.00000000E+00  0.00000000E+00
  0.00000000E+00  0.00000000E+00  0.00000000E+00  0.00000000E+00  0.00000000E+00
Nuclear GFac                               R   N=          20
  0.00000000E+00  0.00000000E+00  0.00000000E+00  0.00000000E+00  0.00000000E+00
  0.00000000E+00  2.79284600E+00  2.79284600E+00  2.79284600E+00  2.79284600E+00
  0.00000000E+00  0.00000000E+00  2.79284600E+00  2.79284600E+00  2.79284600E+00
  0.00000000E+00  0.00000000E+00  2.79284600E+00  2.79284600E+00  2.79284600E+00
MicOpt                                     I   N=          20
          -1          -1          -1          -1          -1          -1
          -1          -1          -1          -1          -1          -1
          -1          -1          -1          -1          -1          -1
          -1          -1
Constraint Structure                       R   N=          60
  2.28298303E+00  1.31791169E+00  0.00000000E+00 -4.44595553E-04  2.63583936E+00
  0.00000000E+00 -2.28298303E+00  1.31806449E+00  0.00000000E+00 -2.28298303E+00
 -1.31791169E+00  0.00000000E+00  4.44595553E-04 -2.63583936E+00  0.00000000E+00
  2.28298303E+00 -1.31806449E+00  0.00000000E+00 -2.76116384E-05  4.71388636E+00
  0.00000000E+00 -4.08288061E+00  2.35673896E+00  0.00000000E+00  2.76116384E-05
 -4.71388636E+00  0.00000000E+00  4.08288061E+00 -2.35673896E+00  0.00000000E+00
 -4.80339995E+00 -2.77338565E+00  0.00000000E+00 -7.02997501E+00 -1.62426238E+00
  0.00000000E+00 -4.60736605E+00 -4.83952311E+00  0.00000000E+00 -8.82759658E+00
 -2.66153613E+00  0.00000000E+00 -7.22600891E+00  4.41875102E-01  0.00000000E+00
  4.80339995E+00  2.77338565E+00  0.00000000E+00  7.02997501E+00  1.62426238E+00
  0.00000000E+00  4.60736605E+00  4.83952311E+00  0.00000000E+00  8.82759658E+00
  2.66153613E+00  0.00000000E+00  7.22600891E+00 -4.41875102E-01  0.00000000E+00
ONIOM Charges                              I   N=          16
           0           0           0           0           0           0
           0           0           0           0           0           0
           0           0           0           0
ONIOM Multiplicities                       I   N=          16
           1           0           0           0           0           0
           0           0           0           0           0           0
           0           0           0           0
Atom Layers                                I   N=          20
           1           1           1           1           1           1
           1           1           1           1           1           1
           1           1           1           1           1           1
           1           1
Atom Modifiers                             I   N=          20
           0           0           0           0           0           0
           0           0           0           0           0           0
           0           0           0           0           0           0
           0           0
Int Atom Modified Types                    I   N=          20
           0           0           0           0           0           0
           0           0           0           0           0           0
           0           0           0           0           0           0
           0           0
Link Atoms                                 I   N=          20
           0           0           0           0           0           0
           0           0           0           0           0           0
           0           0           0           0           0           0
           0           0
Atom Modified MM Charges                   R   N=          20
  0.00000000E+00  0.00000000E+00  0.00000000E+00  0.00000000E+00  0.00000000E+00
  0.00000000E+00  0.00000000E+00  0.00000000E+00  0.00000000E+00  0.00000000E+00
  0.00000000E+00  0.00000000E+00  0.00000000E+00  0.00000000E+00  0.00000000E+00
  0.00000000E+00  0.00000000E+00  0.00000000E+00  0.00000000E+00  0.00000000E+00
Link Distances                             R   N=          80
  0.00000000E+00  0.00000000E+00  0.00000000E+00  0.00000000E+00  0.00000000E+00
  0.00000000E+00  0.00000000E+00  0.00000000E+00  0.00000000E+00  0.00000000E+00
  0.00000000E+00  0.00000000E+00  0.00000000E+00  0.00000000E+00  0.00000000E+00
  0.00000000E+00  0.00000000E+00  0.00000000E+00  0.00000000E+00  0.00000000E+00
  0.00000000E+00  0.00000000E+00  0.00000000E+00  0.00000000E+00  0.00000000E+00
  0.00000000E+00  0.00000000E+00  0.00000000E+00  0.00000000E+00  0.00000000E+00
  0.00000000E+00  0.00000000E+00  0.00000000E+00  0.00000000E+00  0.00000000E+00
  0.00000000E+00  0.00000000E+00  0.00000000E+00  0.00000000E+00  0.00000000E+00
  0.00000000E+00  0.00000000E+00  0.00000000E+00  0.00000000E+00  0.00000000E+00
  0.00000000E+00  0.00000000E+00  0.00000000E+00  0.00000000E+00  0.00000000E+00
  0.00000000E+00  0.00000000E+00  0.00000000E+00  0.00000000E+00  0.00000000E+00
  0.00000000E+00  0.00000000E+00  0.00000000E+00  0.00000000E+00  0.00000000E+00
  0.00000000E+00  0.00000000E+00  0.00000000E+00  0.00000000E+00  0.00000000E+00
  0.00000000E+00  0.00000000E+00  0.00000000E+00  0.00000000E+00  0.00000000E+00
  0.00000000E+00  0.00000000E+00  0.00000000E+00  0.00000000E+00  0.00000000E+00
  0.00000000E+00  0.00000000E+00  0.00000000E+00  0.00000000E+00  0.00000000E+00
MxBond                                     I                3
NBond                                      I   N=          20
           3           3           3           3           3           3
           1           1           1           1           3           3
           1           1           1           3           3           1
           1           1
IBond                                      I   N=          60
           2           6          16           1           3           7
           2           4           8           3           5          11
           4           6           9           1           5          10
           2           0           0           3           0           0
           5           0           0           6           0           0
           4          12          13          11          14          15
          11           0           0          12           0           0
          12           0           0           1          17          18
          16          19          20          16           0           0
          17           0           0          17           0           0
RBond                                      R   N=          60
  1.50000000E+00  1.50000000E+00  1.00000000E+00  1.50000000E+00  1.50000000E+00
  1.00000000E+00  1.50000000E+00  1.50000000E+00  1.00000000E+00  1.50000000E+00
  1.50000000E+00  1.00000000E+00  1.50000000E+00  1.50000000E+00  1.00000000E+00
  1.50000000E+00  1.50000000E+00  1.00000000E+00  1.00000000E+00  0.00000000E+00
  0.00000000E+00  1.00000000E+00  0.00000000E+00  0.00000000E+00  1.00000000E+00
  0.00000000E+00  0.00000000E+00  1.00000000E+00  0.00000000E+00  0.00000000E+00
  1.00000000E+00  2.00000000E+00  1.00000000E+00  2.00000000E+00  1.00000000E+00
  1.00000000E+00  1.00000000E+00  0.00000000E+00  0.00000000E+00  1.00000000E+00
  0.00000000E+00  0.00000000E+00  1.00000000E+00  0.00000000E+00  0.00000000E+00
  1.00000000E+00  2.00000000E+00  1.00000000E+00  2.00000000E+00  1.00000000E+00
  1.00000000E+00  1.00000000E+00  0.00000000E+00  0.00000000E+00  1.00000000E+00
  0.00000000E+00  0.00000000E+00  1.00000000E+00  0.00000000E+00  0.00000000E+00
Shell types                                I   N=          30
           0          -1           0          -1           0          -1
           0          -1           0          -1           0          -1
           0           0           0           0           0          -1
           0          -1           0           0           0           0
          -1           0          -1           0           0           0
Number of primitives per shell             I   N=          30
           3           3           3           3           3           3
           3           3           3           3           3           3
           3           3           3           3           3           3
           3           3           3           3           3           3
           3           3           3           3           3           3
Shell to atom map                          I   N=          30
           1           1           2           2           3           3
           4           4           5           5           6           6
           7           8           9          10          11          11
          12          12          13          14          15          16
          16          17          17          18          19          20
Primitive exponents                        R   N=          90
  7.16168373E+01  1.30450963E+01  3.53051216E+00  2.94124936E+00  6.83483096E-01
  2.22289916E-01  7.16168373E+01  1.30450963E+01  3.53051216E+00  2.94124936E+00
  6.83483096E-01  2.22289916E-01  7.16168373E+01  1.30450963E+01  3.53051216E+00
  2.94124936E+00  6.83483096E-01  2.22289916E-01  7.16168373E+01  1.30450963E+01
  3.53051216E+00  2.94124936E+00  6.83483096E-01  2.22289916E-01  7.16168373E+01
  1.30450963E+01  3.53051216E+00  2.94124936E+00  6.83483096E-01  2.22289916E-01
  7.16168373E+01  1.30450963E+01  3.53051216E+00  2.94124936E+00  6.83483096E-01
  2.22289916E-01  3.42525091E+00  6.23913730E-01  1.68855404E-01  3.42525091E+00
  6.23913730E-01  1.68855404E-01  3.42525091E+00  6.23913730E-01  1.68855404E-01
  3.42525091E+00  6.23913730E-01  1.68855404E-01  7.16168373E+01  1.30450963E+01
  3.53051216E+00  2.94124936E+00  6.83483096E-01  2.22289916E-01  7.16168373E+01
  1.30450963E+01  3.53051216E+00  2.94124936E+00  6.83483096E-01  2.22289916E-01
  3.42525091E+00  6.23913730E-01  1.68855404E-01  3.42525091E+00  6.23913730E-01
  1.68855404E-01  3.42525091E+00  6.23913730E-01  1.68855404E-01  7.16168373E+01
  1.30450963E+01  3.53051216E+00  2.94124936E+00  6.83483096E-01  2.22289916E-01
  7.16168373E+01  1.30450963E+01  3.53051216E+00  2.94124936E+00  6.83483096E-01
  2.22289916E-01  3.42525091E+00  6.23913730E-01  1.68855404E-01  3.42525091E+00
  6.23913730E-01  1.68855404E-01  3.42525091E+00  6.23913730E-01  1.68855404E-01
Contraction coefficients                   R   N=          90
  1.54328967E-01  5.35328142E-01  4.44634542E-01 -9.99672292E-02  3.99512826E-01
  7.00115469E-01  1.54328967E-01  5.35328142E-01  4.44634542E-01 -9.99672292E-02
  3.99512826E-01  7.00115469E-01  1.54328967E-01  5.35328142E-01  4.44634542E-01
 -9.99672292E-02  3.99512826E-01  7.00115469E-01  1.54328967E-01  5.35328142E-01
  4.44634542E-01 -9.99672292E-02  3.99512826E-01  7.00115469E-01  1.54328967E-01
  5.35328142E-01  4.44634542E-01 -9.99672292E-02  3.99512826E-01  7.00115469E-01
  1.54328967E-01  5.35328142E-01  4.44634542E-01 -9.99672292E-02  3.99512826E-01
  7.00115469E-01  1.54328967E-01  5.35328142E-01  4.44634542E-01  1.54328967E-01
  5.35328142E-01  4.44634542E-01  1.54328967E-01  5.35328142E-01  4.44634542E-01
  1.54328967E-01  5.35328142E-01  4.44634542E-01  1.54328967E-01  5.35328142E-01
  4.44634542E-01 -9.99672292E-02  3.99512826E-01  7.00115469E-01  1.54328967E-01
  5.35328142E-01  4.44634542E-01 -9.99672292E-02  3.99512826E-01  7.00115469E-01
  1.54328967E-01  5.35328142E-01  4.44634542E-01  1.54328967E-01  5.35328142E-01
  4.44634542E-01  1.54328967E-01  5.35328142E-01  4.44634542E-01  1.54328967E-01
  5.35328142E-01  4.44634542E-01 -9.99672292E-02  3.99512826E-01  7.00115469E-01
  1.54328967E-01  5.35328142E-01  4.44634542E-01 -9.99672292E-02  3.99512826E-01
  7.00115469E-01  1.54328967E-01  5.35328142E-01  4.44634542E-01  1.54328967E-01
  5.35328142E-01  4.44634542E-01  1.54328967E-01  5.35328142E-01  4.44634542E-01
P(S=P) Contraction coefficients            R   N=          90
  0.00000000E+00  0.00000000E+00  0.00000000E+00  1.55916275E-01  6.07683719E-01
  3.91957393E-01  0.00000000E+00  0.00000000E+00  0.00000000E+00  1.55916275E-01
  6.07683719E-01  3.91957393E-01  0.00000000E+00  0.00000000E+00  0.00000000E+00
  1.55916275E-01  6.07683719E-01  3.91957393E-01  0.00000000E+00  0.00000000E+00
  0.00000000E+00  1.55916275E-01  6.07683719E-01  3.91957393E-01  0.00000000E+00
  0.00000000E+00  0.00000000E+00  1.55916275E-01  6.07683719E-01  3.91957393E-01
  0.00000000E+00  0.00000000E+00  0.00000000E+00  1.55916275E-01  6.07683719E-01
  3.91957393E-01  0.00000000E+00  0.00000000E+00  0.00000000E+00  0.00000000E+00
  0.00000000E+00  0.00000000E+00  0.00000000E+00  0.00000000E+00  0.00000000E+00
  0.00000000E+00  0.00000000E+00  0.00000000E+00  0.00000000E+00  0.00000000E+00
  0.00000000E+00  1.55916275E-01  6.07683719E-01  3.91957393E-01  0.00000000E+00
  0.00000000E+00  0.00000000E+00  1.55916275E-01  6.07683719E-01  3.91957393E-01
  0.00000000E+00  0.00000000E+00  0.00000000E+00  0.00000000E+00  0.00000000E+00
  0.00000000E+00  0.00000000E+00  0.00000000E+00  0.00000000E+00  0.00000000E+00
  0.00000000E+00  0.00000000E+00  1.55916275E-01  6.07683719E-01  3.91957393E-01
  0.00000000E+00  0.00000000E+00  0.00000000E+00  1.55916275E-01  6.07683719E-01
  3.91957393E-01  0.00000000E+00  0.00000000E+00  0.00000000E+00  0.00000000E+00
  0.00000000E+00  0.00000000E+00  0.00000000E+00  0.00000000E+00  0.00000000E+00
Coordinates of each shell                  R   N=          90
  2.32630922E+00  1.39602929E+00  0.00000000E+00  2.32630922E+00  1.39602929E+00
  0.00000000E+00 -5.18599300E-02  2.64897352E+00  0.00000000E+00 -5.18599300E-02
  2.64897352E+00  0.00000000E+00 -2.32630922E+00  1.28970371E+00  0.00000000E+00
 -2.32630922E+00  1.28970371E+00  0.00000000E+00 -2.32630922E+00 -1.39602929E+00
  0.00000000E+00 -2.32630922E+00 -1.39602929E+00  0.00000000E+00  5.18599300E-02
 -2.64897352E+00  0.00000000E+00  5.18599300E-02 -2.64897352E+00  0.00000000E+00
  2.32630922E+00 -1.28970371E+00  0.00000000E+00  2.32630922E+00 -1.28970371E+00
  0.00000000E+00 -9.69425007E-02  4.72461368E+00  0.00000000E+00 -4.12688253E+00
  2.31922769E+00  0.00000000E+00  9.69425007E-02 -4.72461368E+00  0.00000000E+00
  4.12688253E+00 -2.31922769E+00  0.00000000E+00 -4.69870402E+00 -2.93893907E+00
  0.00000000E+00 -4.69870402E+00 -2.93893907E+00  0.00000000E+00 -7.08011302E+00
 -2.05428973E+00  0.00000000E+00 -7.08011302E+00 -2.05428973E+00  0.00000000E+00
 -4.38801409E+00 -4.99511254E+00  0.00000000E+00 -8.70371040E+00 -3.34085118E+00
  0.00000000E+00 -7.51985709E+00 -3.04181754E-02  0.00000000E+00  4.69870402E+00
  2.93893907E+00  0.00000000E+00  4.69870402E+00  2.93893907E+00  0.00000000E+00
  7.08011302E+00  2.05428973E+00  0.00000000E+00  7.08011302E+00  2.05428973E+00
  0.00000000E+00  4.38801409E+00  4.99511254E+00  0.00000000E+00  8.70371040E+00
  3.34085118E+00  0.00000000E+00  7.51985709E+00  3.04181754E-02  0.00000000E+00
Alpha Orbital Energies                     R   N=          60
 -1.00202122E+01 -1.00201648E+01 -1.00081157E+01 -1.00081148E+01 -1.00067796E+01
 -1.00067755E+01 -1.00060477E+01 -1.00059096E+01 -9.99232733E+00 -9.99232725E+00
 -8.09500972E-01 -7.53980597E-01 -7.17959000E-01 -6.99783443E-01 -6.67486812E-01
 -5.88693936E-01 -5.58912874E-01 -5.31671896E-01 -5.10171599E-01 -4.57452579E-01
 -4.39364684E-01 -4.10600808E-01 -3.97949666E-01 -3.96059349E-01 -3.73964066E-01
 -3.51133561E-01 -3.47300879E-01 -3.24500893E-01 -3.11273796E-01 -2.92797343E-01
 -2.87447914E-01 -2.63539306E-01 -2.12435719E-01 -1.95050012E-01 -1.53064290E-01
  3.74026469E-02  9.03796326E-02  1.10595934E-01  1.82192976E-01  2.72522254E-01
  3.32285589E-01  3.40750092E-01  3.79407484E-01  3.81443084E-01  4.10941344E-01
  4.11931014E-01  4.26735086E-01  4.39620164E-01  4.52803749E-01  4.78288514E-01
  5.26243347E-01  5.45797694E-01  5.76024542E-01  5.99472550E-01  6.24973331E-01
  6.39744784E-01  6.82745958E-01  7.17177728E-01  7.79514371E-01  7.94567530E-01
Alpha MO coefficients                      R   N=        3600
  6.99294838E-01  3.15665401E-02 -8.38091318E-04 -3.63645631E-04  0.00000000E+00
 -1.85732001E-02 -7.72460071E-03 -3.74455041E-03  2.31242515E-03  0.00000000E+00
  1.91333209E-02  7.71134543E-03  2.90470875E-04 -4.37084520E-03  0.00000000E+00
 -6.99294838E-01 -3.15665401E-02 -8.38091318E-04 -3.63645631E-04  0.00000000E+00
  1.85732001E-02  7.72460071E-03 -3.74455041E-03  2.31242515E-03  0.00000000E+00
 -1.91333209E-02 -7.71134543E-03  2.90470875E-04 -4.37084520E-03  0.00000000E+00
  3.32828135E-04 -3.32545921E-04 -3.32828135E-04  3.32545921E-04  2.74342812E-02
  6.72598595E-03  3.36053283E-03  2.30311439E-03  0.00000000E+00 -1.79826741E-04
 -4.74485116E-04 -2.60959540E-04 -1.07603471E-04  0.00000000E+00 -3.25912949E-04
  2.87919629E-05  1.48461598E-04 -2.74342812E-02 -6.72598595E-03  3.36053283E-03
  2.30311439E-03  0.00000000E+00  1.79826741E-04  4.74485116E-04 -2.60959540E-04
 -1.07603471E-04  0.00000000E+00  3.25912949E-04 -2.87919629E-05 -1.48461598E-04
  6.99292613E-01  3.13599235E-02 -6.06799856E-04 -2.14390878E-04  0.00000000E+00
 -1.90489202E-02 -6.91271625E-03 -4.01104584E-03  1.98239195E-03  0.00000000E+00
 -1.93913866E-02 -6.87764499E-03  1.47518536E-04  4.42594408E-03  0.00000000E+00
  6.99292613E-01  3.13599235E-02  6.06799856E-04  2.14390878E-04  0.00000000E+00
 -1.90489202E-02 -6.91271625E-03  4.01104584E-03 -1.98239195E-03  0.00000000E+00
 -1.93913866E-02 -6.87764499E-03 -1.47518536E-04 -4.42594408E-03  0.00000000E+00
  2.19885050E-04  2.22822157E-04  2.19885050E-04  2.22822157E-04 -2.77980046E-02
 -6.79382705E-03 -3.39266213E-03 -2.32411602E-03  0.00000000E+00  1.93631407E-04
  4.77698814E-04  2.67377158E-04  1.09474348E-04  0.00000000E+00  3.37159419E-04
 -2.78879229E-05 -1.40613580E-04 -2.77980046E-02 -6.79382705E-03  3.39266213E-03
  2.32411602E-03  0.00000000E+00  1.93631407E-04  4.77698814E-04 -2.67377158E-04
 -1.09474348E-04  0.00000000E+00  3.37159419E-04 -2.78879229E-05 -1.40613580E-04
 -2.80410960E-02  4.12685138E-03  3.61030905E-03  2.15005070E-03  0.00000000E+00
  8.69745256E-03  5.29800910E-04  4.26578875E-05 -1.21405199E-04  0.00000000E+00
 -7.64357297E-03 -4.38653584E-04 -1.18735649E-04  9.62379253E-05  0.00000000E+00
  2.80410960E-02 -4.12685138E-03  3.61030905E-03  2.15005070E-03  0.00000000E+00
 -8.69745256E-03 -5.29800910E-04  4.26578875E-05 -1.21405199E-04  0.00000000E+00
  7.64357297E-03  4.38653584E-04 -1.18735649E-04  9.62379253E-05  0.00000000E+00
 -7.55093471E-05 -6.05011905E-05  7.55093471E-05  6.05011905E-05  6.99826279E-01
  3.07835519E-02 -1.27192812E-03  2.96499087E-04  0.00000000E+00 -8.11739148E-03
 -7.61333151E-03 -4.31816558E-03  1.56651056E-03  0.00000000E+00 -6.42257963E-03
  2.15886367E-04  1.86363734E-04 -6.99826279E-01 -3.07835519E-02 -1.27192812E-03
  2.96499087E-04  0.00000000E+00  8.11739148E-03  7.61333151E-03 -4.31816558E-03
  1.56651056E-03  0.00000000E+00  6.42257963E-03 -2.15886367E-04 -1.86363734E-04
  2.82464712E-02 -4.07210514E-03 -3.58798732E-03 -2.13266924E-03  0.00000000E+00
 -1.15835131E-02 -5.57277322E-04 -1.25746315E-04  1.54848387E-04  0.00000000E+00
 -1.02092901E-02 -4.19486019E-04 -8.85068820E-05  1.90595337E-04  0.00000000E+00
  2.82464712E-02 -4.07210514E-03  3.58798732E-03  2.13266924E-03  0.00000000E+00
 -1.15835131E-02 -5.57277322E-04  1.25746315E-04 -1.54848387E-04  0.00000000E+00
 -1.02092901E-02 -4.19486019E-04  8.85068820E-05 -1.90595337E-04  0.00000000E+00
  8.10388623E-05 -6.22164221E-05  8.10388623E-05 -6.22164221E-05  6.99744611E-01
  3.07650081E-02 -1.28068045E-03  2.90523479E-04  0.00000000E+00 -8.11088001E-03
 -7.61171659E-03 -4.31656057E-03  1.56747731E-03  0.00000000E+00 -6.42035340E-03
  2.16115156E-04  1.86738190E-04  6.99744611E-01  3.07650081E-02  1.28068045E-03
 -2.90523479E-04  0.00000000E+00 -8.11088001E-03 -7.61171659E-03  4.31656057E-03
 -1.56747731E-03  0.00000000E+00 -6.42035340E-03  2.16115156E-04  1.86738190E-04
 -2.75490061E-02  7.90609243E-03 -1.98035036E-03 -2.86496947E-03  0.00000000E+00
 -3.40467764E-01 -2.08909649E-02  3.44028888E-03  2.52864601E-03  0.00000000E+00
  6.11029969E-01  3.03019122E-02  2.77360696E-03  8.45624571E-04  0.00000000E+00
  2.75490061E-02 -7.90609243E-03 -1.98035036E-03 -2.86496947E-03  0.00000000E+00
  3.40467764E-01  2.08909649E-02  3.44028888E-03  2.52864601E-03  0.00000000E+00
 -6.11029969E-01 -3.03019122E-02  2.77360696E-03  8.45624571E-04  0.00000000E+00
  3.23879663E-03 -5.62451331E-03 -3.23879663E-03  5.62451331E-03  9.89593402E-03
  5.57087574E-04 -5.84999310E-05  3.21079835E-05  0.00000000E+00 -9.26753851E-04
 -2.35133973E-04 -1.16992872E-04 -3.98210328E-05  0.00000000E+00 -1.41543929E-04
 -1.02188125E-05  1.58752767E-04 -9.89593402E-03 -5.57087574E-04 -5.84999310E-05
  3.21079835E-05  0.00000000E+00  9.26753851E-04  2.35133973E-04 -1.16992872E-04
 -3.98210328E-05  0.00000000E+00  1.41543929E-04  1.02188125E-05 -1.58752767E-04
  6.93947901E-03 -1.73221734E-03 -2.05972288E-03  4.77588903E-03  0.00000000E+00
 -3.67258256E-01 -2.17640889E-02  3.28695346E-03  2.39384830E-03  0.00000000E+00
  5.95922040E-01  2.96764695E-02  2.66116646E-03  1.03554422E-03  0.00000000E+00
  6.93947901E-03 -1.73221734E-03  2.05972288E-03 -4.77588903E-03  0.00000000E+00
 -3.67258256E-01 -2.17640889E-02 -3.28695346E-03 -2.39384830E-03  0.00000000E+00
  5.95922040E-01  2.96764695E-02 -2.66116646E-03 -1.03554422E-03  0.00000000E+00
  3.40765931E-03 -5.50310318E-03  3.40765931E-03 -5.50310318E-03  2.34452403E-03
  9.63554722E-05 -9.58245054E-05  8.28409382E-05  0.00000000E+00 -4.38119820E-04
 -1.00169517E-04 -2.71516319E-05 -3.41658310E-05  0.00000000E+00 -4.53993683E-05
 -5.52578851E-06  1.60278435E-04  2.34452403E-03  9.63554722E-05  9.58245054E-05
 -8.28409382E-05  0.00000000E+00 -4.38119820E-04 -1.00169517E-04  2.71516319E-05
  3.41658310E-05  0.00000000E+00 -4.53993683E-05 -5.52578851E-06  1.60278435E-04
  7.43564305E-03 -2.24940022E-03  3.34472029E-03 -3.80507323E-03  0.00000000E+00