 Entering Gaussian System, Link 0=g03
 Initial command:
 /home/eric/data/opt/apps/gaussian/g03E.01/g03/l1.exe /tmp/Gau-2151700.inp -scrdir=/tmp/
 Entering Link 1 = /home/eric/data/opt/apps/gaussian/g03E.01/g03/l1.exe PID=   2151702.
  
 Copyright (c) 1988,1990,1992,1993,1995,1998,2003,2004,2007, Gaussian, Inc.
                  All Rights Reserved.
  
 This is the Gaussian(R) 03 program.  It is based on the
 the Gaussian(R) 98 system (copyright 1998, Gaussian, Inc.),
 the Gaussian(R) 94 system (copyright 1995, Gaussian, Inc.),
 the Gaussian 92(TM) system (copyright 1992, Gaussian, Inc.),
 the Gaussian 90(TM) system (copyright 1990, Gaussian, Inc.),
 the Gaussian 88(TM) system (copyright 1988, Gaussian, Inc.),
 the Gaussian 86(TM) system (copyright 1986, Carnegie Mellon
 University), and the Gaussian 82(TM) system (copyright 1983,
 Carnegie Mellon University). Gaussian is a federally registered
 trademark of Gaussian, Inc.
  
 This software contains proprietary and confidential information,
 including trade secrets, belonging to Gaussian, Inc.
  
 This software is provided under written license and may be
 used, copied, transmitted, or stored only in accord with that
 written license.
  
 The following legend is applicable only to US Government
 contracts under FAR:
  
                    RESTRICTED RIGHTS LEGEND
  
 Use, reproduction and disclosure by the US Government is
 subject to restrictions as set forth in subparagraphs (a)
 and (c) of the Commercial Computer Software - Restricted
 Rights clause in FAR 52.227-19.
  
 Gaussian, Inc.
 340 Quinnipiac St., Bldg. 40, Wallingford CT 06492
  
  
 ---------------------------------------------------------------
 Warning -- This program may not be used in any manner that
 competes with the business of Gaussian, Inc. or will provide
 assistance to any competitor of Gaussian, Inc.  The licensee
 of this program is prohibited from giving any competitor of
 Gaussian, Inc. access to this program.  By using this program,
 the user acknowledges that Gaussian, Inc. is engaged in the
 business of creating and licensing software in the field of
 computational chemistry and represents and warrants to the
 licensee that it is not a competitor of Gaussian, Inc. and that
 it will not use this program in any manner prohibited above.
 ---------------------------------------------------------------
  

 Cite this work as:
 Gaussian 03, Revision E.01,
 M. J. Frisch, G. W. Trucks, H. B. Schlegel, G. E. Scuseria, 
 M. A. Robb, J. R. Cheeseman, J. A. Montgomery, Jr., T. Vreven, 
 K. N. Kudin, J. C. Burant, J. M. Millam, S. S. Iyengar, J. Tomasi, 
 V. Barone, B. Mennucci, M. Cossi, G. Scalmani, N. Rega, 
 G. A. Petersson, H. Nakatsuji, M. Hada, M. Ehara, K. Toyota, 
 R. Fukuda, J. Hasegawa, M. Ishida, T. Nakajima, Y. Honda, O. Kitao, 
 H. Nakai, M. Klene, X. Li, J. E. Knox, H. P. Hratchian, J. B. Cross, 
 V. Bakken, C. Adamo, J. Jaramillo, R. Gomperts, R. E. Stratmann, 
 O. Yazyev, A. J. Austin, R. Cammi, C. Pomelli, J. W. Ochterski, 
 P. Y. Ayala, K. Morokuma, G. A. Voth, P. Salvador, J. J. Dannenberg, 
 V. G. Zakrzewski, S. Dapprich, A. D. Daniels, M. C. Strain, 
 O. Farkas, D. K. Malick, A. D. Rabuck, K. Raghavachari, 
 J. B. Foresman, J. V. Ortiz, Q. Cui, A. G. Baboul, S. Clifford, 
 J. Cioslowski, B. B. Stefanov, G. Liu, A. Liashenko, P. Piskorz, 
 I. Komaromi, R. L. Martin, D. J. Fox, T. Keith, M. A. Al-Laham, 
 C. Y. Peng, A. Nanayakkara, M. Challacombe, P. M. W. Gill, 
 B. Johnson, W. Chen, M. W. Wong, C. Gonzalez, and J. A. Pople, 
 Gaussian, Inc., Wallingford CT, 2004.
 
 ******************************************
 Gaussian 03:  AM64L-G03RevE.01 11-Sep-2007
                29-Jun-2025 
 ******************************************
 %chk=dvb_gopt_qchem_unconverged.chk
 ------------------------------------------
 #p b3lyp/sto-3g opt(maxcycles=5,maxstep=1)
 ------------------------------------------
 1/6=5,8=1,14=-1,18=20,26=3,38=1/1,3;
 2/9=110,17=6,18=5,40=1/2;
 3/6=3,11=2,16=1,25=1,30=1,74=-5/1,2,3;
 4//1;
 5/5=2,38=5/2;
 6/7=2,8=2,9=2,10=2,28=1/1;
 7//1,2,3,16;
 1/6=5,8=1,14=-1,18=20/3(3);
 2/9=110/2;
 6/7=2,8=2,9=2,10=2,19=2,28=1/1;
 99//99;
 2/9=110/2;
 3/6=3,11=2,16=1,25=1,30=1,74=-5/1,2,3;
 4/5=5,16=3/1;
 5/5=2,38=5/2;
 7//1,2,3,16;
 1/6=5,8=1,14=-1,18=20/3(-5);
 2/9=110/2;
 6/7=2,8=2,9=2,10=2,19=2,28=1/1;
 99/9=1/99;
 Leave Link    1 at Sun Jun 29 23:37:28 2025, MaxMem=          0 cpu:       0.0
 (Enter /home/eric/data/opt/apps/gaussian/g03E.01/g03/l101.exe)
 ---------------------------------
 dvb not allowed to optimize fully
 ---------------------------------
 Symbolic Z-matrix:
 Charge =  0 Multiplicity = 1
 C                     0.27868  -1.36683   0. 
 C                     1.32303  -0.44174   0. 
 C                     1.04435   0.92485   0. 
 C                    -0.27868   1.36683   0. 
 C                    -1.32303   0.44174   0. 
 C                    -1.04435  -0.92485   0. 
 H                     2.36595  -0.79038   0. 
 H                     1.86746   1.65408   0. 
 H                    -2.36595   0.79038   0. 
 H                    -1.86746  -1.65408   0. 
 C                    -0.58659   2.8759    0. 
 C                     0.3635    3.80076   0. 
 H                    -1.65648   3.12394   0. 
 H                     0.1443    4.87693   0. 
 H                     1.43339   3.55272   0. 
 C                     0.58659  -2.8759    0. 
 C                    -0.3635   -3.80076   0. 
 H                     1.65648  -3.12394   0. 
 H                    -0.1443   -4.87693   0. 
 H                    -1.43339  -3.55272   0. 
 
                    Isotopes and Nuclear Properties:
 (Nuclear quadrupole moments (NQMom) in fm**2, nuclear magnetic moments (NMagM)
  in nuclear magnetons)

  Atom         1           2           3           4           5           6           7           8           9          10
 IAtWgt=          12          12          12          12          12          12           1           1           1           1
 AtmWgt=  12.0000000  12.0000000  12.0000000  12.0000000  12.0000000  12.0000000   1.0078250   1.0078250   1.0078250   1.0078250
 NucSpn=           0           0           0           0           0           0           1           1           1           1
 AtZEff=   0.0000000   0.0000000   0.0000000   0.0000000   0.0000000   0.0000000   0.0000000   0.0000000   0.0000000   0.0000000
 NQMom=    0.0000000   0.0000000   0.0000000   0.0000000   0.0000000   0.0000000   0.0000000   0.0000000   0.0000000   0.0000000
 NMagM=    0.0000000   0.0000000   0.0000000   0.0000000   0.0000000   0.0000000   2.7928460   2.7928460   2.7928460   2.7928460

  Atom        11          12          13          14          15          16          17          18          19          20
 IAtWgt=          12          12           1           1           1          12          12           1           1           1
 AtmWgt=  12.0000000  12.0000000   1.0078250   1.0078250   1.0078250  12.0000000  12.0000000   1.0078250   1.0078250   1.0078250
 NucSpn=           0           0           1           1           1           0           0           1           1           1
 AtZEff=   0.0000000   0.0000000   0.0000000   0.0000000   0.0000000   0.0000000   0.0000000   0.0000000   0.0000000   0.0000000
 NQMom=    0.0000000   0.0000000   0.0000000   0.0000000   0.0000000   0.0000000   0.0000000   0.0000000   0.0000000   0.0000000
 NMagM=    0.0000000   0.0000000   2.7928460   2.7928460   2.7928460   0.0000000   0.0000000   2.7928460   2.7928460   2.7928460
 Leave Link  101 at Sun Jun 29 23:37:28 2025, MaxMem=    6291456 cpu:       0.0
 (Enter /home/eric/data/opt/apps/gaussian/g03E.01/g03/l103.exe)

 GradGradGradGradGradGradGradGradGradGradGradGradGradGradGradGradGradGrad
 Berny optimization.
 Initialization pass.
                           ----------------------------
                           !    Initial Parameters    !
                           ! (Angstroms and Degrees)  !
 --------------------------                            --------------------------
 ! Name  Definition              Value          Derivative Info.                !
 --------------------------------------------------------------------------------
 ! R1    R(1,2)                  1.3952         estimate D2E/DX2                !
 ! R2    R(1,6)                  1.3949         estimate D2E/DX2                !
 ! R3    R(1,16)                 1.5402         estimate D2E/DX2                !
 ! R4    R(2,3)                  1.3947         estimate D2E/DX2                !
 ! R5    R(2,7)                  1.0997         estimate D2E/DX2                !
 ! R6    R(3,4)                  1.3949         estimate D2E/DX2                !
 ! R7    R(3,8)                  1.0997         estimate D2E/DX2                !
 ! R8    R(4,5)                  1.3952         estimate D2E/DX2                !
 ! R9    R(4,11)                 1.5402         estimate D2E/DX2                !
 ! R10   R(5,6)                  1.3947         estimate D2E/DX2                !
 ! R11   R(5,9)                  1.0997         estimate D2E/DX2                !
 ! R12   R(6,10)                 1.0997         estimate D2E/DX2                !
 ! R13   R(11,12)                1.3259         estimate D2E/DX2                !
 ! R14   R(11,13)                1.0983         estimate D2E/DX2                !
 ! R15   R(12,14)                1.0983         estimate D2E/DX2                !
 ! R16   R(12,15)                1.0983         estimate D2E/DX2                !
 ! R17   R(16,17)                1.3259         estimate D2E/DX2                !
 ! R18   R(16,18)                1.0983         estimate D2E/DX2                !
 ! R19   R(17,19)                1.0983         estimate D2E/DX2                !
 ! R20   R(17,20)                1.0983         estimate D2E/DX2                !
 ! A1    A(2,1,6)              119.9923         estimate D2E/DX2                !
 ! A2    A(2,1,16)             120.0024         estimate D2E/DX2                !
 ! A3    A(6,1,16)             120.0053         estimate D2E/DX2                !
 ! A4    A(1,2,3)              120.0086         estimate D2E/DX2                !
 ! A5    A(1,2,7)              119.9808         estimate D2E/DX2                !
 ! A6    A(3,2,7)              120.0106         estimate D2E/DX2                !
 ! A7    A(2,3,4)              119.9991         estimate D2E/DX2                !
 ! A8    A(2,3,8)              120.0128         estimate D2E/DX2                !
 ! A9    A(4,3,8)              119.9881         estimate D2E/DX2                !
 ! A10   A(3,4,5)              119.9923         estimate D2E/DX2                !
 ! A11   A(3,4,11)             120.0053         estimate D2E/DX2                !
 ! A12   A(5,4,11)             120.0024         estimate D2E/DX2                !
 ! A13   A(4,5,6)              120.0086         estimate D2E/DX2                !
 ! A14   A(4,5,9)              119.9808         estimate D2E/DX2                !
 ! A15   A(6,5,9)              120.0106         estimate D2E/DX2                !
 ! A16   A(1,6,5)              119.9991         estimate D2E/DX2                !
 ! A17   A(1,6,10)             119.9881         estimate D2E/DX2                !
 ! A18   A(5,6,10)             120.0128         estimate D2E/DX2                !
 ! A19   A(4,11,12)            122.6967         estimate D2E/DX2                !
 ! A20   A(4,11,13)            114.5853         estimate D2E/DX2                !
 ! A21   A(12,11,13)           122.718          estimate D2E/DX2                !
 ! A22   A(11,12,14)           122.7159         estimate D2E/DX2                !
 ! A23   A(11,12,15)           122.718          estimate D2E/DX2                !
 ! A24   A(14,12,15)           114.5661         estimate D2E/DX2                !
 ! A25   A(1,16,17)            122.6967         estimate D2E/DX2                !
 ! A26   A(1,16,18)            114.5853         estimate D2E/DX2                !
 ! A27   A(17,16,18)           122.718          estimate D2E/DX2                !
 ! A28   A(16,17,19)           122.7159         estimate D2E/DX2                !
 ! A29   A(16,17,20)           122.718          estimate D2E/DX2                !
 ! A30   A(19,17,20)           114.5661         estimate D2E/DX2                !
 ! D1    D(6,1,2,3)              0.0            estimate D2E/DX2                !
 ! D2    D(6,1,2,7)            180.0            estimate D2E/DX2                !
 ! D3    D(16,1,2,3)           180.0            estimate D2E/DX2                !
 ! D4    D(16,1,2,7)             0.0            estimate D2E/DX2                !
 ! D5    D(2,1,6,5)              0.0            estimate D2E/DX2                !
 ! D6    D(2,1,6,10)           180.0            estimate D2E/DX2                !
 ! D7    D(16,1,6,5)           180.0            estimate D2E/DX2                !
 ! D8    D(16,1,6,10)            0.0            estimate D2E/DX2                !
 ! D9    D(2,1,16,17)          180.0            estimate D2E/DX2                !
 ! D10   D(2,1,16,18)            0.0            estimate D2E/DX2                !
 ! D11   D(6,1,16,17)            0.0            estimate D2E/DX2                !
 ! D12   D(6,1,16,18)          180.0            estimate D2E/DX2                !
 ! D13   D(1,2,3,4)              0.0            estimate D2E/DX2                !
 ! D14   D(1,2,3,8)            180.0            estimate D2E/DX2                !
 ! D15   D(7,2,3,4)            180.0            estimate D2E/DX2                !
 ! D16   D(7,2,3,8)              0.0            estimate D2E/DX2                !
 ! D17   D(2,3,4,5)              0.0            estimate D2E/DX2                !
 ! D18   D(2,3,4,11)           180.0            estimate D2E/DX2                !
 ! D19   D(8,3,4,5)            180.0            estimate D2E/DX2                !
 ! D20   D(8,3,4,11)             0.0            estimate D2E/DX2                !
 ! D21   D(3,4,5,6)              0.0            estimate D2E/DX2                !
 ! D22   D(3,4,5,9)            180.0            estimate D2E/DX2                !
 ! D23   D(11,4,5,6)           180.0            estimate D2E/DX2                !
 ! D24   D(11,4,5,9)             0.0            estimate D2E/DX2                !
 ! D25   D(3,4,11,12)            0.0            estimate D2E/DX2                !
 ! D26   D(3,4,11,13)          180.0            estimate D2E/DX2                !
 ! D27   D(5,4,11,12)          180.0            estimate D2E/DX2                !
 ! D28   D(5,4,11,13)            0.0            estimate D2E/DX2                !
 ! D29   D(4,5,6,1)              0.0            estimate D2E/DX2                !
 ! D30   D(4,5,6,10)           180.0            estimate D2E/DX2                !
 ! D31   D(9,5,6,1)            180.0            estimate D2E/DX2                !
 ! D32   D(9,5,6,10)             0.0            estimate D2E/DX2                !
 ! D33   D(4,11,12,14)         180.0            estimate D2E/DX2                !
 ! D34   D(4,11,12,15)           0.0            estimate D2E/DX2                !
 ! D35   D(13,11,12,14)          0.0            estimate D2E/DX2                !
 ! D36   D(13,11,12,15)        180.0            estimate D2E/DX2                !
 ! D37   D(1,16,17,19)         180.0            estimate D2E/DX2                !
 ! D38   D(1,16,17,20)           0.0            estimate D2E/DX2                !
 ! D39   D(18,16,17,19)          0.0            estimate D2E/DX2                !
 ! D40   D(18,16,17,20)        180.0            estimate D2E/DX2                !
 --------------------------------------------------------------------------------
 Trust Radius=1.00D-02 FncErr=1.00D-07 GrdErr=1.00D-06
 Number of steps in this run=   5 maximum allowed number of steps= 120.
 GradGradGradGradGradGradGradGradGradGradGradGradGradGradGradGradGradGrad

 Leave Link  103 at Sun Jun 29 23:37:28 2025, MaxMem=    6291456 cpu:       0.0
 (Enter /home/eric/data/opt/apps/gaussian/g03E.01/g03/l202.exe)
                          Input orientation:                          
 ---------------------------------------------------------------------
 Center     Atomic     Atomic              Coordinates (Angstroms)
 Number     Number      Type              X           Y           Z
 ---------------------------------------------------------------------
    1          6             0        0.278679   -1.366832    0.000000
    2          6             0        1.323030   -0.441736    0.000000
    3          6             0        1.044345    0.924850    0.000000
    4          6             0       -0.278679    1.366832    0.000000
    5          6             0       -1.323030    0.441736    0.000000
    6          6             0       -1.044345   -0.924850    0.000000
    7          1             0        2.365954   -0.790377    0.000000
    8          1             0        1.867461    1.654080    0.000000
    9          1             0       -2.365954    0.790377    0.000000
   10          1             0       -1.867461   -1.654080    0.000000
   11          6             0       -0.586592    2.875899    0.000000
   12          6             0        0.363502    3.800764    0.000000
   13          1             0       -1.656478    3.123943    0.000000
   14          1             0        0.144296    4.876932    0.000000
   15          1             0        1.433388    3.552720    0.000000
   16          6             0        0.586592   -2.875899    0.000000
   17          6             0       -0.363502   -3.800764    0.000000
   18          1             0        1.656478   -3.123943    0.000000
   19          1             0       -0.144296   -4.876932    0.000000
   20          1             0       -1.433388   -3.552720    0.000000
 ---------------------------------------------------------------------
                    Distance matrix (angstroms):
                    1          2          3          4          5
     1  C    0.000000
     2  C    1.395160   0.000000
     3  C    2.416205   1.394712   0.000000
     4  C    2.789904   2.415862   1.394899   0.000000
     5  C    2.415862   2.789652   2.416168   1.395160   0.000000
     6  C    1.394899   2.416168   2.789985   2.416205   1.394712
     7  H    2.165414   1.099655   2.165330   3.412864   3.889307
     8  H    3.413229   2.165375   1.099680   2.165278   3.413065
     9  H    3.412864   3.889307   3.412950   2.165414   1.099655
    10  H    2.165278   3.413065   3.889665   3.413229   2.165375
    11  C    4.330065   3.827971   2.542941   1.540161   2.543127
    12  C    5.168292   4.349655   2.955407   2.517226   3.758652
    13  H    4.889979   4.646669   3.482880   2.232883   2.702855
    14  H    6.245210   5.447719   4.053276   3.535494   4.671618
    15  H    5.053251   3.995980   2.656512   2.776560   4.156449
    16  C    1.540161   2.543127   3.828215   4.330065   3.827971
    17  C    2.517226   3.758652   4.930868   5.168292   4.349655
    18  H    2.232883   2.702855   4.094805   4.889979   4.646669
    19  H    3.535494   4.671618   5.922292   6.245210   5.447719
    20  H    2.776560   4.156449   5.117401   5.053251   3.995980
                    6          7          8          9         10
     6  C    0.000000
     7  H    3.412950   0.000000
     8  H    3.889665   2.494768   0.000000
     9  H    2.165330   4.988962   4.320624   0.000000
    10  H    1.099680   4.320624   4.989345   2.494768   0.000000
    11  C    3.828215   4.707347   2.741390   2.741447   4.707583
    12  C    4.930868   5.008832   2.621096   4.063540   5.893430
    13  H    4.094805   5.612652   3.818199   2.439034   4.782679
    14  H    5.922292   6.087213   3.654597   4.795966   6.833834
    15  H    5.117401   4.442092   1.947628   4.697397   6.164931
    16  C    2.542941   2.741447   4.707583   4.707347   2.741390
    17  C    2.955407   4.063540   5.893430   5.008832   2.621096
    18  H    3.482880   2.439034   4.782679   5.612652   3.818199
    19  H    4.053276   4.795966   6.833834   6.087213   3.654597
    20  H    2.656512   4.697397   6.164931   4.442092   1.947628
                   11         12         13         14         15
    11  C    0.000000
    12  C    1.325916   0.000000
    13  H    1.098263   2.130353   0.000000
    14  H    2.130336   1.098266   2.513117   0.000000
    15  H    2.130353   1.098263   3.119474   1.848052   0.000000
    16  C    5.870225   6.680390   6.405425   7.765438   6.484151
    17  C    6.680390   7.636214   7.044385   8.692541   7.569845
    18  H    6.405425   7.044385   7.071899   8.142524   6.680390
    19  H    7.765438   8.692541   8.142524   9.758133   8.576021
    20  H    6.484151   7.569845   6.680390   8.576021   7.661964
                   16         17         18         19         20
    16  C    0.000000
    17  C    1.325916   0.000000
    18  H    1.098263   2.130353   0.000000
    19  H    2.130336   1.098266   2.513117   0.000000
    20  H    2.130353   1.098263   3.119474   1.848052   0.000000
 Stoichiometry    C10H10
 Framework group  C2H[SGH(C10H10)]
 Deg. of freedom    19
 Full point group                 C2H
 Largest Abelian subgroup         C2H     NOp   4
 Largest concise Abelian subgroup C2      NOp   2
                         Standard orientation:                         
 ---------------------------------------------------------------------
 Center     Atomic     Atomic              Coordinates (Angstroms)
 Number     Number      Type              X           Y           Z
 ---------------------------------------------------------------------
    1          6             0        1.208103    0.697409    0.000000
    2          6             0       -0.000235    1.394826    0.000000
    3          6             0       -1.208103    0.697490    0.000000
    4          6             0       -1.208103   -0.697409    0.000000
    5          6             0        0.000235   -1.394826    0.000000
    6          6             0        1.208103   -0.697490    0.000000
    7          1             0       -0.000015    2.494481    0.000000
    8          1             0       -2.160567    1.247133    0.000000
    9          1             0        0.000015   -2.494481    0.000000
   10          1             0        2.160567   -1.247133    0.000000
   11          6             0       -2.541850   -1.467612    0.000000
   12          6             0       -3.720103   -0.859523    0.000000
   13          1             0       -2.438113   -2.560965    0.000000
   14          1             0       -4.671363   -1.408424    0.000000
   15          1             0       -3.823839    0.233830    0.000000
   16          6             0        2.541850    1.467612    0.000000
   17          6             0        3.720103    0.859523    0.000000
   18          1             0        2.438113    2.560965    0.000000
   19          1             0        4.671363    1.408424    0.000000
   20          1             0        3.823839   -0.233830    0.000000
 ---------------------------------------------------------------------
 Rotational constants (GHZ):      4.6160103      0.7067289      0.6128927
 Leave Link  202 at Sun Jun 29 23:37:28 2025, MaxMem=    6291456 cpu:       0.0
 (Enter /home/eric/data/opt/apps/gaussian/g03E.01/g03/l301.exe)
 Standard basis: STO-3G (5D, 7F)
 There are    25 symmetry adapted basis functions of AG  symmetry.
 There are     5 symmetry adapted basis functions of BG  symmetry.
 There are     5 symmetry adapted basis functions of AU  symmetry.
 There are    25 symmetry adapted basis functions of BU  symmetry.
 Integral buffers will be    131072 words long.
 Raffenetti 2 integral format.
 Two-electron integral symmetry is turned on.
    60 basis functions,   180 primitive gaussians,    60 cartesian basis functions
    35 alpha electrons       35 beta electrons
       nuclear repulsion energy       450.0061360697 Hartrees.
 IExCor= 402 DFT=T Ex=B+HF Corr=LYP ExCW=0 ScaHFX=  0.200000
 ScaDFX=  0.800000  0.720000  1.000000  0.810000
 IRadAn=      0 IRanWt=     -1 IRanGd=            0 ICorTp=0
 NAtoms=   20 NActive=   20 NUniq=   10 SFac= 3.00D+00 NAtFMM=   80 NAOKFM=F Big=F
 Leave Link  301 at Sun Jun 29 23:37:28 2025, MaxMem=    6291456 cpu:       0.0
 (Enter /home/eric/data/opt/apps/gaussian/g03E.01/g03/l302.exe)
 NPDir=0 NMtPBC=     1 NCelOv=     1 NCel=       1 NClECP=     1 NCelD=      1
         NCelK=      1 NCelE2=     1 NClLst=     1 CellRange=     0.0.
 One-electron integrals computed using PRISM.
 One-electron integral symmetry used in STVInt
 NBasis=    60 RedAO= T  NBF=    25     5     5    25
 NBsUse=    60 1.00D-06 NBFU=    25     5     5    25
 Precomputing XC quadrature grid using
 IXCGrd= 2 IRadAn=           0 IRanWt=          -1 IRanGd=           0.
 NRdTot=    1258 NPtTot=      160096 NUsed=      168983 NTot=      169015
 NSgBfM=    59    59    59    59.
 Leave Link  302 at Sun Jun 29 23:37:29 2025, MaxMem=    6291456 cpu:       0.3
 (Enter /home/eric/data/opt/apps/gaussian/g03E.01/g03/l303.exe)
 DipDrv:  MaxL=1.
 Leave Link  303 at Sun Jun 29 23:37:29 2025, MaxMem=    6291456 cpu:       0.0
 (Enter /home/eric/data/opt/apps/gaussian/g03E.01/g03/l401.exe)
 Harris functional with IExCor=  402 diagonalized for initial guess.
 ExpMin= 1.69D-01 ExpMax= 7.16D+01 ExpMxC= 7.16D+01 IAcc=1 IRadAn=         1 AccDes= 1.00D-06
 HarFok:  IExCor= 402 AccDes= 1.00D-06 IRadAn=         1 IDoV=1
 ScaDFX=  1.000000  1.000000  1.000000  1.000000
 Harris En= -382.337589860406    
 Initial guess orbital symmetries:
       Occupied  (BU) (AG) (BU) (AG) (AG) (BU) (BU) (AG) (BU) (AG)
                 (AG) (BU) (AG) (BU) (BU) (AG) (AG) (BU) (AG) (AG)
                 (BU) (BU) (AG) (BU) (BU) (BU) (AG) (AU) (AG) (BU)
                 (AG) (BG) (AU) (BG) (BG)
       Virtual   (AU) (AU) (BG) (AU) (BG) (BU) (AG) (BU) (AG) (AG)
                 (BU) (BU) (AG) (BU) (AG) (AG) (BU) (AG) (BU) (BU)
                 (AG) (AG) (BU) (AG) (BU)
 The electronic state of the initial guess is 1-AG.
 Leave Link  401 at Sun Jun 29 23:37:29 2025, MaxMem=    6291456 cpu:       0.1
 (Enter /home/eric/data/opt/apps/gaussian/g03E.01/g03/l502.exe)
 Closed shell SCF:
 Requested convergence on RMS density matrix=1.00D-08 within 128 cycles.
 Requested convergence on MAX density matrix=1.00D-06.
 Requested convergence on             energy=1.00D-06.
 No special actions if energy rises.
 Using DIIS extrapolation, IDIIS=  1040.
 Integral symmetry usage will be decided dynamically.
       168982 words used for storage of precomputed grid.
 Keep R1 integrals in memory in canonical form, NReq=     3556035.
 IEnd=    199600 IEndB=    199600 NGot=   6291456 MDV=   4436778
 LenX=   4436778
 Symmetry not used in FoFDir.
 MinBra= 0 MaxBra= 1 Meth= 1.
 IRaf=       0 NMat=   1 IRICut=       1 DoRegI=T DoRafI=F ISym2E= 0 JSym2E=0.
 Integral accuracy reduced to 1.0D-05 until final iterations.

 Cycle   1  Pass 0  IDiag  1:
 E= -382.214609164278    
 DIIS: error= 2.59D-02 at cycle   1 NSaved=   1.
 NSaved= 1 IEnMin= 1 EnMin= -382.214609164278     IErMin= 1 ErrMin= 2.59D-02
 ErrMax= 2.59D-02 EMaxC= 1.00D-01 BMatC= 5.87D-02 BMatP= 5.87D-02
 IDIUse=3 WtCom= 7.41D-01 WtEn= 2.59D-01
 Coeff-Com:  0.100D+01
 Coeff-En:   0.100D+01
 Coeff:      0.100D+01
 Gap=     0.209 Goal=   None    Shift=    0.000
 GapD=    0.209 DampG=1.000 DampE=0.500 DampFc=0.5000 IDamp=-1.
 Damping current iteration by 5.00D-01
 RMSDP=9.84D-03 MaxDP=1.17D-01              OVMax= 1.79D-02

 Cycle   2  Pass 0  IDiag  1:
 E= -382.262128166853     Delta-E=       -0.047519002575 Rises=F Damp=T
 DIIS: error= 5.83D-03 at cycle   2 NSaved=   2.
 NSaved= 2 IEnMin= 2 EnMin= -382.262128166853     IErMin= 2 ErrMin= 5.83D-03
 ErrMax= 5.83D-03 EMaxC= 1.00D-01 BMatC= 3.65D-03 BMatP= 5.87D-02
 IDIUse=3 WtCom= 9.42D-01 WtEn= 5.83D-02
 Coeff-Com: -0.261D+00 0.126D+01
 Coeff-En:   0.000D+00 0.100D+01
 Coeff:     -0.246D+00 0.125D+01
 Gap=     0.209 Goal=   None    Shift=    0.000
 RMSDP=1.99D-03 MaxDP=2.85D-02 DE=-4.75D-02 OVMax= 3.41D-02

 Cycle   3  Pass 0  IDiag  1:
 E= -382.297869147590     Delta-E=       -0.035740980737 Rises=F Damp=F
 DIIS: error= 6.94D-03 at cycle   3 NSaved=   3.
 NSaved= 3 IEnMin= 3 EnMin= -382.297869147590     IErMin= 2 ErrMin= 5.83D-03
 ErrMax= 6.94D-03 EMaxC= 1.00D-01 BMatC= 1.96D-03 BMatP= 3.65D-03
 IDIUse=3 WtCom= 9.31D-01 WtEn= 6.94D-02
 Coeff-Com: -0.167D+00 0.734D+00 0.432D+00
 Coeff-En:   0.000D+00 0.000D+00 0.100D+01
 Coeff:     -0.155D+00 0.683D+00 0.472D+00
 Gap=     0.209 Goal=   None    Shift=    0.000
 RMSDP=1.14D-03 MaxDP=2.82D-02 DE=-3.57D-02 OVMax= 2.13D-02

 Cycle   4  Pass 0  IDiag  1:
 E= -382.300121968550     Delta-E=       -0.002252820961 Rises=F Damp=F
 DIIS: error= 2.16D-03 at cycle   4 NSaved=   4.
 NSaved= 4 IEnMin= 4 EnMin= -382.300121968550     IErMin= 4 ErrMin= 2.16D-03
 ErrMax= 2.16D-03 EMaxC= 1.00D-01 BMatC= 1.77D-04 BMatP= 1.96D-03
 IDIUse=3 WtCom= 9.78D-01 WtEn= 2.16D-02
 Coeff-Com: -0.538D-02 0.217D-01 0.234D+00 0.750D+00
 Coeff-En:   0.000D+00 0.000D+00 0.809D-01 0.919D+00
 Coeff:     -0.527D-02 0.213D-01 0.230D+00 0.754D+00
 Gap=     0.210 Goal=   None    Shift=    0.000
 RMSDP=2.80D-04 MaxDP=7.08D-03 DE=-2.25D-03 OVMax= 5.80D-03

 Cycle   5  Pass 0  IDiag  1:
 E= -382.300340058848     Delta-E=       -0.000218090298 Rises=F Damp=F
 DIIS: error= 2.53D-04 at cycle   5 NSaved=   5.
 NSaved= 5 IEnMin= 5 EnMin= -382.300340058848     IErMin= 5 ErrMin= 2.53D-04
 ErrMax= 2.53D-04 EMaxC= 1.00D-01 BMatC= 4.22D-06 BMatP= 1.77D-04
 IDIUse=3 WtCom= 9.97D-01 WtEn= 2.53D-03
 Coeff-Com: -0.163D-03-0.182D-03 0.119D+00 0.413D+00 0.468D+00
 Coeff-En:   0.000D+00 0.000D+00 0.000D+00 0.000D+00 0.100D+01
 Coeff:     -0.163D-03-0.182D-03 0.119D+00 0.412D+00 0.470D+00
 Gap=     0.210 Goal=   None    Shift=    0.000
 RMSDP=4.31D-05 MaxDP=6.24D-04 DE=-2.18D-04 OVMax= 5.20D-04

 Cycle   6  Pass 0  IDiag  1:
 E= -382.300345130044     Delta-E=       -0.000005071196 Rises=F Damp=F
 DIIS: error= 1.63D-05 at cycle   6 NSaved=   6.
 NSaved= 6 IEnMin= 6 EnMin= -382.300345130044     IErMin= 6 ErrMin= 1.63D-05
 ErrMax= 1.63D-05 EMaxC= 1.00D-01 BMatC= 9.25D-09 BMatP= 4.22D-06
 IDIUse=1 WtCom= 1.00D+00 WtEn= 0.00D+00
 Coeff-Com:  0.123D-03-0.505D-03 0.966D-02 0.324D-01 0.668D-01 0.892D+00
 Coeff:      0.123D-03-0.505D-03 0.966D-02 0.324D-01 0.668D-01 0.892D+00
 Gap=     0.210 Goal=   None    Shift=    0.000
 RMSDP=2.83D-06 MaxDP=3.60D-05 DE=-5.07D-06 OVMax= 6.89D-05

 Initial convergence to 1.0D-05 achieved.  Increase integral accuracy.
 Cycle   7  Pass 1  IDiag  1:
 E= -382.300253122445     Delta-E=        0.000092007600 Rises=F Damp=F
 DIIS: error= 1.07D-05 at cycle   1 NSaved=   1.
 NSaved= 1 IEnMin= 1 EnMin= -382.300253122445     IErMin= 1 ErrMin= 1.07D-05
 ErrMax= 1.07D-05 EMaxC= 1.00D-01 BMatC= 2.82D-09 BMatP= 2.82D-09
 IDIUse=1 WtCom= 1.00D+00 WtEn= 0.00D+00
 Coeff-Com:  0.100D+01
 Coeff:      0.100D+01
 Gap=     0.210 Goal=   None    Shift=    0.000
 RMSDP=2.83D-06 MaxDP=3.60D-05 DE= 9.20D-05 OVMax= 4.49D-06

 Cycle   8  Pass 1  IDiag  1:
 E= -382.300253127051     Delta-E=       -0.000000004607 Rises=F Damp=F
 DIIS: error= 4.51D-06 at cycle   2 NSaved=   2.
 NSaved= 2 IEnMin= 2 EnMin= -382.300253127051     IErMin= 2 ErrMin= 4.51D-06
 ErrMax= 4.51D-06 EMaxC= 1.00D-01 BMatC= 1.00D-09 BMatP= 2.82D-09
 IDIUse=1 WtCom= 1.00D+00 WtEn= 0.00D+00
 Coeff-Com:  0.325D+00 0.675D+00
 Coeff:      0.325D+00 0.675D+00
 Gap=     0.210 Goal=   None    Shift=    0.000
 RMSDP=9.90D-07 MaxDP=1.49D-05 DE=-4.61D-09 OVMax= 8.41D-06

 Cycle   9  Pass 1  IDiag  1:
 E= -382.300253128055     Delta-E=       -0.000000001004 Rises=F Damp=F
 DIIS: error= 2.59D-06 at cycle   3 NSaved=   3.
 NSaved= 3 IEnMin= 3 EnMin= -382.300253128055     IErMin= 3 ErrMin= 2.59D-06
 ErrMax= 2.59D-06 EMaxC= 1.00D-01 BMatC= 2.21D-10 BMatP= 1.00D-09
 IDIUse=1 WtCom= 1.00D+00 WtEn= 0.00D+00
 Coeff-Com: -0.737D-02 0.314D+00 0.694D+00
 Coeff:     -0.737D-02 0.314D+00 0.694D+00
 Gap=     0.210 Goal=   None    Shift=    0.000
 RMSDP=3.41D-07 MaxDP=6.16D-06 DE=-1.00D-09 OVMax= 8.89D-07

 Cycle  10  Pass 1  IDiag  1:
 E= -382.300253128321     Delta-E=       -0.000000000266 Rises=F Damp=F
 DIIS: error= 3.85D-07 at cycle   4 NSaved=   4.
 NSaved= 4 IEnMin= 4 EnMin= -382.300253128321     IErMin= 4 ErrMin= 3.85D-07
 ErrMax= 3.85D-07 EMaxC= 1.00D-01 BMatC= 1.07D-11 BMatP= 2.21D-10
 IDIUse=1 WtCom= 1.00D+00 WtEn= 0.00D+00
 Coeff-Com: -0.130D-01 0.135D+00 0.348D+00 0.529D+00
 Coeff:     -0.130D-01 0.135D+00 0.348D+00 0.529D+00
 Gap=     0.210 Goal=   None    Shift=    0.000
 RMSDP=7.46D-08 MaxDP=8.92D-07 DE=-2.66D-10 OVMax= 5.18D-07

 Cycle  11  Pass 1  IDiag  1:
 E= -382.300253128334     Delta-E=       -0.000000000013 Rises=F Damp=F
 DIIS: error= 1.90D-08 at cycle   5 NSaved=   5.
 NSaved= 5 IEnMin= 5 EnMin= -382.300253128334     IErMin= 5 ErrMin= 1.90D-08
 ErrMax= 1.90D-08 EMaxC= 1.00D-01 BMatC= 2.14D-14 BMatP= 1.07D-11
 IDIUse=1 WtCom= 1.00D+00 WtEn= 0.00D+00
 Coeff-Com: -0.723D-03 0.183D-02 0.142D-01 0.327D-01 0.952D+00
 Coeff:     -0.723D-03 0.183D-02 0.142D-01 0.327D-01 0.952D+00
 Gap=     0.210 Goal=   None    Shift=    0.000
 RMSDP=5.05D-09 MaxDP=6.58D-08 DE=-1.34D-11 OVMax= 1.13D-07

 SCF Done:  E(RB+HF-LYP) =  -382.300253128     A.U. after   11 cycles
             Convg  =    0.5048D-08             -V/T =  2.0167
             S**2   =   0.0000
 KE= 3.760297858291D+02 PE=-1.784698716902D+03 EE= 5.763625418750D+02
 Leave Link  502 at Sun Jun 29 23:37:31 2025, MaxMem=    6291456 cpu:       2.2
 (Enter /home/eric/data/opt/apps/gaussian/g03E.01/g03/l601.exe)
 Copying SCF densities to generalized density rwf, ISCF=0 IROHF=0.

 **********************************************************************

            Population analysis using the SCF density.

 **********************************************************************

 Orbital symmetries:
       Occupied  (BU) (AG) (BU) (AG) (BU) (AG) (BU) (AG) (BU) (AG)
                 (AG) (BU) (AG) (BU) (BU) (AG) (AG) (BU) (AG) (AG)
                 (BU) (BU) (BU) (AG) (BU) (BU) (AG) (AU) (BU) (AG)
                 (AG) (BG) (AU) (BG) (BG)
       Virtual   (AU) (AU) (BG) (AU) (BG) (AG) (BU) (BU) (AG) (BU)
                 (AG) (BU) (AG) (BU) (AG) (AG) (BU) (AG) (BU) (BU)
                 (AG) (AG) (BU) (AG) (BU)
 The electronic state is 1-AG.
 Alpha  occ. eigenvalues --  -10.01795 -10.01788 -10.00754 -10.00754 -10.00665
 Alpha  occ. eigenvalues --  -10.00662 -10.00559 -10.00548  -9.99193  -9.99193
 Alpha  occ. eigenvalues --   -0.81796  -0.75504  -0.72068  -0.70413  -0.67021
 Alpha  occ. eigenvalues --   -0.58511  -0.56058  -0.53191  -0.51212  -0.46191
 Alpha  occ. eigenvalues --   -0.43853  -0.41040  -0.39959  -0.39711  -0.37550
 Alpha  occ. eigenvalues --   -0.35777  -0.34896  -0.33016  -0.30527  -0.29544
 Alpha  occ. eigenvalues --   -0.28089  -0.26315  -0.21604  -0.19752  -0.16006
 Alpha virt. eigenvalues --    0.04958   0.09073   0.11645   0.18147   0.28032
 Alpha virt. eigenvalues --    0.31923   0.32955   0.36540   0.37027   0.41287
 Alpha virt. eigenvalues --    0.41597   0.42156   0.44573   0.46877   0.49587
 Alpha virt. eigenvalues --    0.53877   0.57055   0.58675   0.61013   0.62652
 Alpha virt. eigenvalues --    0.64574   0.69281   0.74302   0.80623   0.81603
          Condensed to atoms (all electrons):
              1          2          3          4          5          6
     1  C    4.780385   0.500524  -0.029605  -0.012317  -0.029430   0.500966
     2  C    0.500524   4.806230   0.508294  -0.029430  -0.011748  -0.031087
     3  C   -0.029605   0.508294   4.806999   0.500966  -0.031087  -0.011871
     4  C   -0.012317  -0.029430   0.500966   4.780385   0.500524  -0.029605
     5  C   -0.029430  -0.011748  -0.031087   0.500524   4.806230   0.508294
     6  C    0.500966  -0.031087  -0.011871  -0.029605   0.508294   4.806999
     7  H   -0.025567   0.388652  -0.025123   0.001439   0.000038   0.001436
     8  H    0.001432  -0.024991   0.388914  -0.025107   0.001426   0.000038
     9  H    0.001439   0.000038   0.001436  -0.025567   0.388652  -0.025123
    10  H   -0.025107   0.001426   0.000038   0.001432  -0.024991   0.388914
    11  C    0.000021   0.000837  -0.025478   0.394478  -0.027176   0.000856
    12  C    0.000000   0.000033  -0.006226  -0.025466   0.000653  -0.000008
    13  H   -0.000001  -0.000017   0.001008  -0.024484  -0.003009   0.000007
    14  H    0.000000   0.000000   0.000046   0.001373  -0.000015   0.000000
    15  H   -0.000001  -0.000016  -0.001933  -0.004547   0.000028  -0.000001
    16  C    0.394478  -0.027176   0.000856   0.000021   0.000837  -0.025478
    17  C   -0.025466   0.000653  -0.000008   0.000000   0.000033  -0.006226
    18  H   -0.024484  -0.003009   0.000007  -0.000001  -0.000017   0.001008
    19  H    0.001373  -0.000015   0.000000   0.000000   0.000000   0.000046
    20  H   -0.004547   0.000028  -0.000001  -0.000001  -0.000016  -0.001933
              7          8          9         10         11         12
     1  C   -0.025567   0.001432   0.001439  -0.025107   0.000021   0.000000
     2  C    0.388652  -0.024991   0.000038   0.001426   0.000837   0.000033
     3  C   -0.025123   0.388914   0.001436   0.000038  -0.025478  -0.006226
     4  C    0.001439  -0.025107  -0.025567   0.001432   0.394478  -0.025466
     5  C    0.000038   0.001426   0.388652  -0.024991  -0.027176   0.000653
     6  C    0.001436   0.000038  -0.025123   0.388914   0.000856  -0.000008
     7  H    0.587059  -0.003771   0.000002  -0.000035  -0.000016   0.000001
     8  H   -0.003771   0.587090  -0.000035   0.000002  -0.003921  -0.001930
     9  H    0.000002  -0.000035   0.587059  -0.003771  -0.003911   0.000035
    10  H   -0.000035   0.000002  -0.003771   0.587090  -0.000015   0.000000
    11  C   -0.000016  -0.003921  -0.003911  -0.000015   4.802203   0.598464
    12  C    0.000001  -0.001930   0.000035   0.000000   0.598464   4.843715
    13  H    0.000000   0.000037   0.001003  -0.000001   0.386413  -0.025664
    14  H    0.000000  -0.000025  -0.000002   0.000000  -0.023489   0.386633
    15  H    0.000005   0.001126   0.000001   0.000000  -0.023984   0.386142
    16  C   -0.003911  -0.000015  -0.000016  -0.003921   0.000000   0.000000
    17  C    0.000035   0.000000   0.000001  -0.001930   0.000000   0.000000
    18  H    0.001003  -0.000001   0.000000   0.000037   0.000000   0.000000
    19  H   -0.000002   0.000000   0.000000  -0.000025   0.000000   0.000000
    20  H    0.000001   0.000000   0.000005   0.001126   0.000000   0.000000
             13         14         15         16         17         18
     1  C   -0.000001   0.000000  -0.000001   0.394478  -0.025466  -0.024484
     2  C   -0.000017   0.000000  -0.000016  -0.027176   0.000653  -0.003009
     3  C    0.001008   0.000046  -0.001933   0.000856  -0.000008   0.000007
     4  C   -0.024484   0.001373  -0.004547   0.000021   0.000000  -0.000001
     5  C   -0.003009  -0.000015   0.000028   0.000837   0.000033  -0.000017
     6  C    0.000007   0.000000  -0.000001  -0.025478  -0.006226   0.001008
     7  H    0.000000   0.000000   0.000005  -0.003911   0.000035   0.001003
     8  H    0.000037  -0.000025   0.001126  -0.000015   0.000000  -0.000001
     9  H    0.001003  -0.000002   0.000001  -0.000016   0.000001   0.000000
    10  H   -0.000001   0.000000   0.000000  -0.003921  -0.001930   0.000037
    11  C    0.386413  -0.023489  -0.023984   0.000000   0.000000   0.000000
    12  C   -0.025664   0.386633   0.386142   0.000000   0.000000   0.000000
    13  H    0.588305  -0.004408   0.002000   0.000000   0.000000   0.000000
    14  H   -0.004408   0.585952  -0.024426   0.000000   0.000000   0.000000
    15  H    0.002000  -0.024426   0.589052   0.000000   0.000000   0.000000
    16  C    0.000000   0.000000   0.000000   4.802203   0.598464   0.386413
    17  C    0.000000   0.000000   0.000000   0.598464   4.843715  -0.025664
    18  H    0.000000   0.000000   0.000000   0.386413  -0.025664   0.588305
    19  H    0.000000   0.000000   0.000000  -0.023489   0.386633  -0.004408
    20  H    0.000000   0.000000   0.000000  -0.023984   0.386142   0.002000
             19         20
     1  C    0.001373  -0.004547
     2  C   -0.000015   0.000028
     3  C    0.000000  -0.000001
     4  C    0.000000  -0.000001
     5  C    0.000000  -0.000016
     6  C    0.000046  -0.001933
     7  H   -0.000002   0.000001
     8  H    0.000000   0.000000
     9  H    0.000000   0.000005
    10  H   -0.000025   0.001126
    11  C    0.000000   0.000000
    12  C    0.000000   0.000000
    13  H    0.000000   0.000000
    14  H    0.000000   0.000000
    15  H    0.000000   0.000000
    16  C   -0.023489  -0.023984
    17  C    0.386633   0.386142
    18  H   -0.004408   0.002000
    19  H    0.585952  -0.024426
    20  H   -0.024426   0.589052
 Mulliken atomic charges:
              1
     1  C   -0.004093
     2  C   -0.079226
     3  C   -0.077231
     4  C   -0.004093
     5  C   -0.079226
     6  C   -0.077231
     7  H    0.078754
     8  H    0.079730
     9  H    0.078754
    10  H    0.079730
    11  C   -0.075281
    12  C   -0.156382
    13  H    0.078811
    14  H    0.078363
    15  H    0.076554
    16  C   -0.075281
    17  C   -0.156382
    18  H    0.078811
    19  H    0.078363
    20  H    0.076554
 Sum of Mulliken charges=   0.00000
 Atomic charges with hydrogens summed into heavy atoms:
              1
     1  C   -0.004093
     2  C   -0.000471
     3  C    0.002499
     4  C   -0.004093
     5  C   -0.000471
     6  C    0.002499
     7  H    0.000000
     8  H    0.000000
     9  H    0.000000
    10  H    0.000000
    11  C    0.003530
    12  C   -0.001466
    13  H    0.000000
    14  H    0.000000
    15  H    0.000000
    16  C    0.003530
    17  C   -0.001466
    18  H    0.000000
    19  H    0.000000
    20  H    0.000000
 Sum of Mulliken charges=   0.00000
 Electronic spatial extent (au):  <R**2>=  1815.7757
 Charge=     0.0000 electrons
 Dipole moment (field-independent basis, Debye):
    X=     0.0000    Y=     0.0000    Z=     0.0000  Tot=     0.0000
 Quadrupole moment (field-independent basis, Debye-Ang):
   XX=   -50.8150   YY=   -50.2925   ZZ=   -58.5742
   XY=    -0.3354   XZ=     0.0000   YZ=     0.0000
 Traceless Quadrupole moment (field-independent basis, Debye-Ang):
   XX=     2.4122   YY=     2.9347   ZZ=    -5.3470
   XY=    -0.3354   XZ=     0.0000   YZ=     0.0000
 Octapole moment (field-independent basis, Debye-Ang**2):
  XXX=     0.0000  YYY=     0.0000  ZZZ=     0.0000  XYY=     0.0000
  XXY=     0.0000  XXZ=     0.0000  XZZ=     0.0000  YZZ=     0.0000
  YYZ=     0.0000  XYZ=     0.0000
 Hexadecapole moment (field-independent basis, Debye-Ang**3):
 XXXX= -1664.3045 YYYY=  -475.3457 ZZZZ=   -47.5456 XXXY=  -220.2417
 XXXZ=     0.0000 YYYX=  -221.7717 YYYZ=     0.0000 ZZZX=     0.0000
 ZZZY=     0.0000 XXYY=  -358.9673 XXZZ=  -328.1119 YYZZ=  -100.7347
 XXYZ=     0.0000 YYXZ=     0.0000 ZZXY=   -85.5625
 N-N= 4.500061360697D+02 E-N=-1.784698715274D+03  KE= 3.760297858291D+02
 Symmetry AG   KE= 1.814872932902D+02
 Symmetry BG   KE= 7.819651367517D+00
 Symmetry AU   KE= 4.680625564438D+00
 Symmetry BU   KE= 1.820422156069D+02
 No NMR shielding tensors so no spin-rotation constants.
 Leave Link  601 at Sun Jun 29 23:37:31 2025, MaxMem=    6291456 cpu:       0.0
 (Enter /home/eric/data/opt/apps/gaussian/g03E.01/g03/l701.exe)
 Compute integral first derivatives.
 ... and contract with generalized density number  0.
 Leave Link  701 at Sun Jun 29 23:37:31 2025, MaxMem=    6291456 cpu:       0.0
 (Enter /home/eric/data/opt/apps/gaussian/g03E.01/g03/l702.exe)
 L702 exits ... SP integral derivatives will be done elsewhere.
 Leave Link  702 at Sun Jun 29 23:37:31 2025, MaxMem=    6291456 cpu:       0.0
 (Enter /home/eric/data/opt/apps/gaussian/g03E.01/g03/l703.exe)
 Compute integral first derivatives, UseDBF=F.
 Integral derivatives from FoFDir, PRISM(SPDF).
 Petite list used in FoFDir.
 MinBra= 0 MaxBra= 1 Meth= 1.
 IRaf=       0 NMat=   1 IRICut=       1 DoRegI=T DoRafI=F ISym2E= 1 JSym2E=1.
 Leave Link  703 at Sun Jun 29 23:37:32 2025, MaxMem=    6291456 cpu:       0.8
 (Enter /home/eric/data/opt/apps/gaussian/g03E.01/g03/l716.exe)
 Dipole        =-8.79296636D-14-1.59872116D-14 0.00000000D+00
 ***** Axes restored to original set *****
 -------------------------------------------------------------------
 Center     Atomic                   Forces (Hartrees/Bohr)
 Number     Number              X              Y              Z
 -------------------------------------------------------------------
    1          6           0.008599114   -0.050677110    0.000000000
    2          6           0.019242147    0.006174198    0.000000000
    3          6           0.019931428   -0.001547358    0.000000000
    4          6          -0.008599114    0.050677110    0.000000000
    5          6          -0.019242147   -0.006174198    0.000000000
    6          6          -0.019931428    0.001547358    0.000000000
    7          1          -0.001344322   -0.000187381    0.000000000
    8          1          -0.001457210   -0.003440604    0.000000000
    9          1           0.001344322    0.000187381    0.000000000
   10          1           0.001457210    0.003440604    0.000000000
   11          6          -0.004622021   -0.039244757    0.000000000
   12          6           0.013019312    0.023322968    0.000000000
   13          1          -0.000324799    0.002985724    0.000000000
   14          1          -0.001996350   -0.001522151    0.000000000
   15          1          -0.002850424    0.000207407    0.000000000
   16          6           0.004622021    0.039244757    0.000000000
   17          6          -0.013019312   -0.023322968    0.000000000
   18          1           0.000324799   -0.002985724    0.000000000
   19          1           0.001996350    0.001522151    0.000000000
   20          1           0.002850424   -0.000207407    0.000000000
 -------------------------------------------------------------------
 Cartesian Forces:  Max     0.050677110 RMS     0.013861725
 Leave Link  716 at Sun Jun 29 23:37:32 2025, MaxMem=    6291456 cpu:       0.0
 (Enter /home/eric/data/opt/apps/gaussian/g03E.01/g03/l103.exe)

 GradGradGradGradGradGradGradGradGradGradGradGradGradGradGradGradGradGrad
 Berny optimization.
 Internal  Forces:  Max     0.025406160 RMS     0.008125091
 Search for a local minimum.
 Step number   1 out of a maximum of   5
 All quantities printed in internal units (Hartrees-Bohrs-Radians)
 Second derivative matrix not updated -- first step.
     Eigenvalues ---    0.00235   0.00235   0.01514   0.01617   0.01762
     Eigenvalues ---    0.01762   0.02154   0.02155   0.02156   0.02156
     Eigenvalues ---    0.02157   0.02158   0.02158   0.03069   0.03069
     Eigenvalues ---    0.03069   0.03069   0.16000   0.16000   0.16000
     Eigenvalues ---    0.16000   0.16000   0.16000   0.16000   0.16000
     Eigenvalues ---    0.16000   0.16000   0.22000   0.22000   0.22000
     Eigenvalues ---    0.22982   0.24000   0.25000   0.25000   0.28505
     Eigenvalues ---    0.28505   0.33718   0.33718   0.33720   0.33720
     Eigenvalues ---    0.33875   0.33875   0.33875   0.33875   0.33875
     Eigenvalues ---    0.33875   0.42142   0.42486   0.46432   0.46472
     Eigenvalues ---    0.46477   0.46508   0.60481   0.604811000.00000
     Eigenvalues --- 1000.000001000.000001000.000001000.000001000.00000
     Eigenvalues --- 1000.000001000.000001000.000001000.000001000.00000
     Eigenvalues --- 1000.000001000.000001000.000001000.000001000.00000
     Eigenvalues --- 1000.000001000.000001000.000001000.000001000.00000
     Eigenvalues --- 1000.000001000.000001000.000001000.000001000.00000
     Eigenvalues --- 1000.000001000.000001000.000001000.000001000.00000
     Eigenvalues --- 1000.000001000.000001000.000001000.000001000.00000
 RFO step:  Lambda=-1.61212062D-02.
 Linear search not attempted -- first point.
 Maximum step size (   0.010) exceeded in Quadratic search.
    -- Step size scaled by   0.045
 Iteration  1 RMS(Cart)=  0.00419873 RMS(Int)=  0.00000460
 Iteration  2 RMS(Cart)=  0.00000616 RMS(Int)=  0.00000000
 Iteration  3 RMS(Cart)=  0.00000000 RMS(Int)=  0.00000000
 Variable       Old X    -DE/DX   Delta X   Delta X   Delta X     New X
                                 (Linear)    (Quad)   (Total)
    R1        2.63647   0.02401   0.00000   0.00224   0.00224   2.63871
    R2        2.63598   0.02541   0.00000   0.00237   0.00237   2.63834
    R3        2.91048  -0.01461   0.00000  -0.00217  -0.00217   2.90831
    R4        2.63562   0.01295   0.00000   0.00121   0.00121   2.63683
    R5        2.07805  -0.00122   0.00000  -0.00015  -0.00015   2.07789
    R6        2.63598   0.02541   0.00000   0.00237   0.00237   2.63834
    R7        2.07809  -0.00337   0.00000  -0.00043  -0.00043   2.07767
    R8        2.63647   0.02401   0.00000   0.00224   0.00224   2.63871
    R9        2.91048  -0.01461   0.00000  -0.00217  -0.00217   2.90831
   R10        2.63562   0.01295   0.00000   0.00121   0.00121   2.63683
   R11        2.07805  -0.00122   0.00000  -0.00015  -0.00015   2.07789
   R12        2.07809  -0.00337   0.00000  -0.00043  -0.00043   2.07767
   R13        2.50562   0.02121   0.00000   0.00153   0.00153   2.50715
   R14        2.07542   0.00099   0.00000   0.00012   0.00012   2.07554
   R15        2.07542  -0.00109   0.00000  -0.00014  -0.00014   2.07528
   R16        2.07542  -0.00282   0.00000  -0.00036  -0.00036   2.07506
   R17        2.50562   0.02121   0.00000   0.00153   0.00153   2.50715
   R18        2.07542   0.00099   0.00000   0.00012   0.00012   2.07554
   R19        2.07542  -0.00109   0.00000  -0.00014  -0.00014   2.07528
   R20        2.07542  -0.00282   0.00000  -0.00036  -0.00036   2.07506
    A1        2.09426  -0.00838   0.00000  -0.00147  -0.00147   2.09279
    A2        2.09444  -0.00689   0.00000  -0.00113  -0.00113   2.09330
    A3        2.09449   0.01528   0.00000   0.00260   0.00260   2.09709
    A4        2.09455   0.00513   0.00000   0.00091   0.00091   2.09546
    A5        2.09406  -0.00320   0.00000  -0.00062  -0.00062   2.09344
    A6        2.09458  -0.00194   0.00000  -0.00030  -0.00030   2.09428
    A7        2.09438   0.00325   0.00000   0.00055   0.00055   2.09493
    A8        2.09462  -0.00330   0.00000  -0.00070  -0.00070   2.09392
    A9        2.09419   0.00005   0.00000   0.00015   0.00015   2.09434
   A10        2.09426  -0.00838   0.00000  -0.00147  -0.00147   2.09279
   A11        2.09449   0.01528   0.00000   0.00260   0.00260   2.09709
   A12        2.09444  -0.00689   0.00000  -0.00113  -0.00113   2.09330
   A13        2.09455   0.00513   0.00000   0.00091   0.00091   2.09546
   A14        2.09406  -0.00320   0.00000  -0.00062  -0.00062   2.09344
   A15        2.09458  -0.00194   0.00000  -0.00030  -0.00030   2.09428
   A16        2.09438   0.00325   0.00000   0.00055   0.00055   2.09493
   A17        2.09419   0.00005   0.00000   0.00015   0.00015   2.09434
   A18        2.09462  -0.00330   0.00000  -0.00070  -0.00070   2.09392
   A19        2.14146   0.01736   0.00000   0.00329   0.00329   2.14476
   A20        1.99989  -0.00574   0.00000  -0.00090  -0.00090   1.99899
   A21        2.14183  -0.01162   0.00000  -0.00240  -0.00240   2.13944
   A22        2.14180  -0.00282   0.00000  -0.00072  -0.00072   2.14108
   A23        2.14183   0.00095   0.00000   0.00024   0.00024   2.14207
   A24        1.99956   0.00187   0.00000   0.00048   0.00048   2.00003
   A25        2.14146   0.01736   0.00000   0.00329   0.00329   2.14476
   A26        1.99989  -0.00574   0.00000  -0.00090  -0.00090   1.99899
   A27        2.14183  -0.01162   0.00000  -0.00240  -0.00240   2.13944
   A28        2.14180  -0.00282   0.00000  -0.00072  -0.00072   2.14108
   A29        2.14183   0.00095   0.00000   0.00024   0.00024   2.14207
   A30        1.99956   0.00187   0.00000   0.00048   0.00048   2.00003
    D1        0.00000   0.00000   0.00000   0.00000   0.00000   0.00000
    D2        3.14159   0.00000   0.00000   0.00000   0.00000   3.14159
    D3        3.14159   0.00000   0.00000   0.00000   0.00000   3.14159
    D4        0.00000   0.00000   0.00000   0.00000   0.00000   0.00000
    D5        0.00000   0.00000   0.00000   0.00000   0.00000   0.00000
    D6        3.14159   0.00000   0.00000   0.00000   0.00000   3.14159
    D7        3.14159   0.00000   0.00000   0.00000   0.00000   3.14159
    D8        0.00000   0.00000   0.00000   0.00000   0.00000   0.00000
    D9        3.14159   0.00000   0.00000   0.00000   0.00000   3.14159
   D10        0.00000   0.00000   0.00000   0.00000   0.00000   0.00000
   D11        0.00000   0.00000   0.00000   0.00000   0.00000   0.00000
   D12        3.14159   0.00000   0.00000   0.00000   0.00000   3.14159
   D13        0.00000   0.00000   0.00000   0.00000   0.00000   0.00000
   D14        3.14159   0.00000   0.00000   0.00000   0.00000   3.14159
   D15        3.14159   0.00000   0.00000   0.00000   0.00000   3.14159
   D16        0.00000   0.00000   0.00000   0.00000   0.00000   0.00000
   D17        0.00000   0.00000   0.00000   0.00000   0.00000   0.00000
   D18        3.14159   0.00000   0.00000   0.00000   0.00000   3.14159
   D19        3.14159   0.00000   0.00000   0.00000   0.00000   3.14159
   D20        0.00000   0.00000   0.00000   0.00000   0.00000   0.00000
   D21        0.00000   0.00000   0.00000   0.00000   0.00000   0.00000
   D22        3.14159   0.00000   0.00000   0.00000   0.00000   3.14159
   D23        3.14159   0.00000   0.00000   0.00000   0.00000   3.14159
   D24        0.00000   0.00000   0.00000   0.00000   0.00000   0.00000
   D25        0.00000   0.00000   0.00000   0.00000   0.00000   0.00000
   D26        3.14159   0.00000   0.00000   0.00000   0.00000   3.14159
   D27        3.14159   0.00000   0.00000   0.00000   0.00000   3.14159
   D28        0.00000   0.00000   0.00000   0.00000   0.00000   0.00000
   D29        0.00000   0.00000   0.00000   0.00000   0.00000   0.00000
   D30        3.14159   0.00000   0.00000   0.00000   0.00000   3.14159
   D31        3.14159   0.00000   0.00000   0.00000   0.00000   3.14159
   D32        0.00000   0.00000   0.00000   0.00000   0.00000   0.00000
   D33        3.14159   0.00000   0.00000   0.00000   0.00000   3.14159
   D34        0.00000   0.00000   0.00000   0.00000   0.00000   0.00000
   D35        0.00000   0.00000   0.00000   0.00000   0.00000   0.00000
   D36        3.14159   0.00000   0.00000   0.00000   0.00000   3.14159
   D37        3.14159   0.00000   0.00000   0.00000   0.00000   3.14159
   D38        0.00000   0.00000   0.00000   0.00000   0.00000   0.00000
   D39        0.00000   0.00000   0.00000   0.00000   0.00000   0.00000
   D40        3.14159   0.00000   0.00000   0.00000   0.00000   3.14159
         Item               Value     Threshold  Converged?
 Maximum Force            0.025406     0.000450     NO 
 RMS     Force            0.008125     0.000300     NO 
 Maximum Displacement     0.017019     0.001800     NO 
 RMS     Displacement     0.004199     0.001200     NO 
 Predicted change in Energy=-7.067981D-04
 GradGradGradGradGradGradGradGradGradGradGradGradGradGradGradGradGradGrad

 Leave Link  103 at Sun Jun 29 23:37:32 2025, MaxMem=    6291456 cpu:       0.0
 (Enter /home/eric/data/opt/apps/gaussian/g03E.01/g03/l202.exe)
                          Input orientation:                          
 ---------------------------------------------------------------------
 Center     Atomic     Atomic              Coordinates (Angstroms)
 Number     Number      Type              X           Y           Z
 ---------------------------------------------------------------------
    1          6             0        0.276682   -1.369089    0.000000
    2          6             0        1.322774   -0.444172    0.000000
    3          6             0        1.046470    0.923547    0.000000
    4          6             0       -0.276682    1.369089    0.000000
    5          6             0       -1.322774    0.444172    0.000000
    6          6             0       -1.046470   -0.923547    0.000000
    7          1             0        2.365083   -0.794392    0.000000
    8          1             0        1.871264    1.650537    0.000000
    9          1             0       -2.365083    0.794392    0.000000
   10          1             0       -1.871264   -1.650537    0.000000
   11          6             0       -0.584680    2.876965    0.000000
   12          6             0        0.362746    3.805720    0.000000
   13          1             0       -1.654905    3.123838    0.000000
   14          1             0        0.139014    4.880882    0.000000
   15          1             0        1.433369    3.561727    0.000000
   16          6             0        0.584680   -2.876965    0.000000
   17          6             0       -0.362746   -3.805720    0.000000
   18          1             0        1.654905   -3.123838    0.000000
   19          1             0       -0.139014   -4.880882    0.000000
   20          1             0       -1.433369   -3.561727    0.000000
 ---------------------------------------------------------------------
                    Distance matrix (angstroms):
                    1          2          3          4          5
     1  C    0.000000
     2  C    1.396345   0.000000
     3  C    2.418420   1.395350   0.000000
     4  C    2.793533   2.417886   1.396151   0.000000
     5  C    2.417886   2.790713   2.417254   1.396345   0.000000
     6  C    1.396151   2.417254   2.791443   2.418420   1.395350
     7  H    2.166032   1.099574   2.165654   3.414611   3.890286
     8  H    3.414796   2.165329   1.099454   2.166306   3.414263
     9  H    3.414611   3.890286   3.413996   2.166032   1.099574
    10  H    2.166306   3.414263   3.890897   3.414796   2.165329
    11  C    4.332542   3.829926   2.544895   1.539011   2.542295
    12  C    5.175524   4.356976   2.962161   2.519135   3.760449
    13  H    4.890544   4.647286   3.484064   2.231288   2.700171
    14  H    6.251487   5.455042   4.060046   3.536311   4.671319
    15  H    5.064668   4.007425   2.666398   2.780636   4.161186
    16  C    1.539011   2.542295   3.828465   4.332542   3.829926
    17  C    2.519135   3.760449   4.934760   5.175524   4.356976
    18  H    2.231288   2.700171   4.092863   4.890544   4.647286
    19  H    3.536311   4.671319   5.924253   6.251487   5.455042
    20  H    2.780636   4.161186   5.125162   5.064668   4.007425
                    6          7          8          9         10
     6  C    0.000000
     7  H    3.413996   0.000000
     8  H    3.890897   2.494301   0.000000
     9  H    2.165654   4.989860   4.321992   0.000000
    10  H    1.099454   4.321992   4.990351   2.494301   0.000000
    11  C    3.828465   4.709561   2.745139   2.739880   4.706758
    12  C    4.934760   5.017010   2.630673   4.063144   5.895891
    13  H    4.092863   5.613629   3.821581   2.435297   4.779275
    14  H    5.924253   6.096238   3.665490   4.792692   6.833787
    15  H    5.125162   4.454645   1.960713   4.699615   6.171571
    16  C    2.544895   2.739880   4.706758   4.709561   2.745139
    17  C    2.962161   4.063144   5.895891   5.017010   2.630673
    18  H    3.484064   2.435297   4.779275   5.613629   3.821581
    19  H    4.060046   4.792692   6.833787   6.096238   3.665490
    20  H    2.666398   4.699615   6.171571   4.454645   1.960713
                   11         12         13         14         15
    11  C    0.000000
    12  C    1.326726   0.000000
    13  H    1.098329   2.129759   0.000000
    14  H    2.130591   1.098193   2.511045   0.000000
    15  H    2.131061   1.098075   3.119164   1.848114   0.000000
    16  C    5.871552   6.686369   6.405106   7.770638   6.494384
    17  C    6.686369   7.645937   7.049004   8.701081   7.583225
    18  H    6.405106   7.049004   7.070241   8.146991   6.689234
    19  H    7.770638   8.701081   8.146991   9.765722   8.587784
    20  H    6.494384   7.583225   6.689234   8.587784   7.678657
                   16         17         18         19         20
    16  C    0.000000
    17  C    1.326726   0.000000
    18  H    1.098329   2.129759   0.000000
    19  H    2.130591   1.098193   2.511045   0.000000
    20  H    2.131061   1.098075   3.119164   1.848114   0.000000
 Stoichiometry    C10H10
 Framework group  C2H[SGH(C10H10)]
 Deg. of freedom    19
 Full point group                 C2H
 Largest Abelian subgroup         C2H     NOp   4
 Largest concise Abelian subgroup C2      NOp   2
                         Standard orientation:                         
 ---------------------------------------------------------------------
 Center     Atomic     Atomic              Coordinates (Angstroms)
 Number     Number      Type              X           Y           Z
 ---------------------------------------------------------------------
    1          6             0        1.209209    0.699120    0.000000
    2          6             0       -0.001177    1.395356    0.000000
    3          6             0       -1.209209    0.697030    0.000000
    4          6             0       -1.209209   -0.699120    0.000000
    5          6             0        0.001177   -1.395356    0.000000
    6          6             0        1.209209   -0.697030    0.000000
    7          1             0       -0.001891    2.494929    0.000000
    8          1             0       -2.161397    1.246701    0.000000
    9          1             0        0.001891   -2.494929    0.000000
   10          1             0        2.161397   -1.246701    0.000000
   11          6             0       -2.539956   -1.472210    0.000000
   12          6             0       -3.722494   -0.870707    0.000000
   13          1             0       -2.432390   -2.565259    0.000000
   14          1             0       -4.670042   -1.425847    0.000000
   15          1             0       -3.832916    0.221802    0.000000
   16          6             0        2.539956    1.472210    0.000000
   17          6             0        3.722494    0.870707    0.000000
   18          1             0        2.432390    2.565259    0.000000
   19          1             0        4.670042    1.425847    0.000000
   20          1             0        3.832916   -0.221802    0.000000
 ---------------------------------------------------------------------
 Rotational constants (GHZ):      4.6158366      0.7053596      0.6118595
 Leave Link  202 at Sun Jun 29 23:37:32 2025, MaxMem=    6291456 cpu:       0.0
 (Enter /home/eric/data/opt/apps/gaussian/g03E.01/g03/l301.exe)
 Standard basis: STO-3G (5D, 7F)
 There are    25 symmetry adapted basis functions of AG  symmetry.
 There are     5 symmetry adapted basis functions of BG  symmetry.
 There are     5 symmetry adapted basis functions of AU  symmetry.
 There are    25 symmetry adapted basis functions of BU  symmetry.
 Integral buffers will be    131072 words long.
 Raffenetti 2 integral format.
 Two-electron integral symmetry is turned on.
    60 basis functions,   180 primitive gaussians,    60 cartesian basis functions
    35 alpha electrons       35 beta electrons
       nuclear repulsion energy       449.7410460898 Hartrees.
 IExCor= 402 DFT=T Ex=B+HF Corr=LYP ExCW=0 ScaHFX=  0.200000
 ScaDFX=  0.800000  0.720000  1.000000  0.810000
 IRadAn=      0 IRanWt=     -1 IRanGd=            0 ICorTp=0
 NAtoms=   20 NActive=   20 NUniq=   10 SFac= 3.00D+00 NAtFMM=   80 NAOKFM=F Big=F
 Leave Link  301 at Sun Jun 29 23:37:32 2025, MaxMem=    6291456 cpu:       0.0
 (Enter /home/eric/data/opt/apps/gaussian/g03E.01/g03/l302.exe)
 NPDir=0 NMtPBC=     1 NCelOv=     1 NCel=       1 NClECP=     1 NCelD=      1
         NCelK=      1 NCelE2=     1 NClLst=     1 CellRange=     0.0.
 One-electron integrals computed using PRISM.
 One-electron integral symmetry used in STVInt
 NBasis=    60 RedAO= T  NBF=    25     5     5    25
 NBsUse=    60 1.00D-06 NBFU=    25     5     5    25
 Precomputing XC quadrature grid using
 IXCGrd= 2 IRadAn=           0 IRanWt=          -1 IRanGd=           0.
 NRdTot=    1258 NPtTot=      160096 NUsed=      168983 NTot=      169015
 NSgBfM=    59    59    59    59.
 Leave Link  302 at Sun Jun 29 23:37:32 2025, MaxMem=    6291456 cpu:       0.3
 (Enter /home/eric/data/opt/apps/gaussian/g03E.01/g03/l303.exe)
 DipDrv:  MaxL=1.
 Leave Link  303 at Sun Jun 29 23:37:32 2025, MaxMem=    6291456 cpu:       0.0
 (Enter /home/eric/data/opt/apps/gaussian/g03E.01/g03/l401.exe)
 Initial guess read from the read-write file:
 Guess basis will be translated and rotated to current coordinates.
 Initial guess orbital symmetries:
       Occupied  (BU) (AG) (BU) (AG) (BU) (AG) (BU) (AG) (BU) (AG)
                 (AG) (BU) (AG) (BU) (BU) (AG) (AG) (BU) (AG) (AG)
                 (BU) (BU) (BU) (AG) (BU) (BU) (AG) (AU) (BU) (AG)
                 (AG) (BG) (AU) (BG) (BG)
       Virtual   (AU) (AU) (BG) (AU) (BG) (AG) (BU) (BU) (AG) (BU)
                 (AG) (BU) (AG) (BU) (AG) (AG) (BU) (AG) (BU) (BU)
                 (AG) (AG) (BU) (AG) (BU)
 The electronic state of the initial guess is 1-AG.
 Leave Link  401 at Sun Jun 29 23:37:32 2025, MaxMem=    6291456 cpu:       0.0
 (Enter /home/eric/data/opt/apps/gaussian/g03E.01/g03/l502.exe)
 Closed shell SCF:
 Requested convergence on RMS density matrix=1.00D-08 within 128 cycles.
 Requested convergence on MAX density matrix=1.00D-06.
 Requested convergence on             energy=1.00D-06.
 No special actions if energy rises.
 Using DIIS extrapolation, IDIIS=  1040.
 Integral symmetry usage will be decided dynamically.
       168982 words used for storage of precomputed grid.
 Keep R1 integrals in memory in canonical form, NReq=     3556035.
 IEnd=    199600 IEndB=    199600 NGot=   6291456 MDV=   4436778
 LenX=   4436778
 Symmetry not used in FoFDir.
 MinBra= 0 MaxBra= 1 Meth= 1.
 IRaf=       0 NMat=   1 IRICut=       1 DoRegI=T DoRafI=F ISym2E= 0 JSym2E=0.

 Cycle   1  Pass 1  IDiag  1:
 E= -382.300927768929    
 DIIS: error= 3.90D-04 at cycle   1 NSaved=   1.
 NSaved= 1 IEnMin= 1 EnMin= -382.300927768929     IErMin= 1 ErrMin= 3.90D-04
 ErrMax= 3.90D-04 EMaxC= 1.00D-01 BMatC= 1.40D-05 BMatP= 1.40D-05
 IDIUse=3 WtCom= 9.96D-01 WtEn= 3.90D-03
 Coeff-Com:  0.100D+01
 Coeff-En:   0.100D+01
 Coeff:      0.100D+01
 Gap=     0.209 Goal=   None    Shift=    0.000
 RMSDP=1.32D-04 MaxDP=1.55D-03              OVMax= 4.86D-04

 Cycle   2  Pass 1  IDiag  1:
 E= -382.300956404895     Delta-E=       -0.000028635966 Rises=F Damp=F
 DIIS: error= 4.04D-05 at cycle   2 NSaved=   2.
 NSaved= 2 IEnMin= 2 EnMin= -382.300956404895     IErMin= 2 ErrMin= 4.04D-05
 ErrMax= 4.04D-05 EMaxC= 1.00D-01 BMatC= 9.85D-08 BMatP= 1.40D-05
 IDIUse=1 WtCom= 1.00D+00 WtEn= 0.00D+00
 Coeff-Com: -0.735D-01 0.107D+01
 Coeff:     -0.735D-01 0.107D+01
 Gap=     0.209 Goal=   None    Shift=    0.000
 RMSDP=1.32D-05 MaxDP=1.40D-04 DE=-2.86D-05 OVMax= 3.41D-05

 Cycle   3  Pass 1  IDiag  1:
 E= -382.300956563255     Delta-E=       -0.000000158360 Rises=F Damp=F
 DIIS: error= 2.76D-05 at cycle   3 NSaved=   3.
 NSaved= 3 IEnMin= 3 EnMin= -382.300956563255     IErMin= 3 ErrMin= 2.76D-05
 ErrMax= 2.76D-05 EMaxC= 1.00D-01 BMatC= 3.73D-08 BMatP= 9.85D-08
 IDIUse=1 WtCom= 1.00D+00 WtEn= 0.00D+00
 Coeff-Com: -0.400D-01 0.557D+00 0.483D+00
 Coeff:     -0.400D-01 0.557D+00 0.483D+00
 Gap=     0.209 Goal=   None    Shift=    0.000
 RMSDP=4.59D-06 MaxDP=8.75D-05 DE=-1.58D-07 OVMax= 5.46D-05

 Cycle   4  Pass 1  IDiag  1:
 E= -382.300956605895     Delta-E=       -0.000000042641 Rises=F Damp=F
 DIIS: error= 7.77D-06 at cycle   4 NSaved=   4.
 NSaved= 4 IEnMin= 4 EnMin= -382.300956605895     IErMin= 4 ErrMin= 7.77D-06
 ErrMax= 7.77D-06 EMaxC= 1.00D-01 BMatC= 2.55D-09 BMatP= 3.73D-08
 IDIUse=1 WtCom= 1.00D+00 WtEn= 0.00D+00
 Coeff-Com: -0.105D-01 0.140D+00 0.232D+00 0.638D+00
 Coeff:     -0.105D-01 0.140D+00 0.232D+00 0.638D+00
 Gap=     0.209 Goal=   None    Shift=    0.000
 RMSDP=1.44D-06 MaxDP=3.43D-05 DE=-4.26D-08 OVMax= 2.76D-05

 Cycle   5  Pass 1  IDiag  1:
 E= -382.300956608521     Delta-E=       -0.000000002625 Rises=F Damp=F
 DIIS: error= 3.60D-06 at cycle   5 NSaved=   5.
 NSaved= 5 IEnMin= 5 EnMin= -382.300956608521     IErMin= 5 ErrMin= 3.60D-06
 ErrMax= 3.60D-06 EMaxC= 1.00D-01 BMatC= 5.02D-10 BMatP= 2.55D-09
 IDIUse=1 WtCom= 1.00D+00 WtEn= 0.00D+00
 Coeff-Com: -0.134D-02 0.148D-01 0.750D-01 0.373D+00 0.539D+00
 Coeff:     -0.134D-02 0.148D-01 0.750D-01 0.373D+00 0.539D+00
 Gap=     0.209 Goal=   None    Shift=    0.000
 RMSDP=5.25D-07 MaxDP=1.04D-05 DE=-2.63D-09 OVMax= 1.07D-05

 Cycle   6  Pass 1  IDiag  1:
 E= -382.300956609167     Delta-E=       -0.000000000646 Rises=F Damp=F
 DIIS: error= 6.22D-07 at cycle   6 NSaved=   6.
 NSaved= 6 IEnMin= 6 EnMin= -382.300956609167     IErMin= 6 ErrMin= 6.22D-07
 ErrMax= 6.22D-07 EMaxC= 1.00D-01 BMatC= 1.79D-11 BMatP= 5.02D-10
 IDIUse=1 WtCom= 1.00D+00 WtEn= 0.00D+00
 Coeff-Com:  0.231D-04-0.162D-02 0.204D-01 0.134D+00 0.251D+00 0.596D+00
 Coeff:      0.231D-04-0.162D-02 0.204D-01 0.134D+00 0.251D+00 0.596D+00
 Gap=     0.209 Goal=   None    Shift=    0.000
 RMSDP=1.04D-07 MaxDP=1.41D-06 DE=-6.46D-10 OVMax= 2.11D-07

 Cycle   7  Pass 1  IDiag  1:
 E= -382.300956609190     Delta-E=       -0.000000000023 Rises=F Damp=F
 DIIS: error= 9.49D-08 at cycle   7 NSaved=   7.
 NSaved= 7 IEnMin= 7 EnMin= -382.300956609190     IErMin= 7 ErrMin= 9.49D-08
 ErrMax= 9.49D-08 EMaxC= 1.00D-01 BMatC= 6.37D-13 BMatP= 1.79D-11
 IDIUse=1 WtCom= 1.00D+00 WtEn= 0.00D+00
 Coeff-Com:  0.113D-03-0.179D-02 0.231D-02 0.234D-01 0.570D-01 0.216D+00
 Coeff-Com:  0.703D+00
 Coeff:      0.113D-03-0.179D-02 0.231D-02 0.234D-01 0.570D-01 0.216D+00
 Coeff:      0.703D+00
 Gap=     0.209 Goal=   None    Shift=    0.000
 RMSDP=2.13D-08 MaxDP=2.41D-07 DE=-2.25D-11 OVMax= 9.61D-08

 Cycle   8  Pass 1  IDiag  1:
 E= -382.300956609192     Delta-E=       -0.000000000002 Rises=F Damp=F
 DIIS: error= 1.12D-08 at cycle   8 NSaved=   8.
 NSaved= 8 IEnMin= 8 EnMin= -382.300956609192     IErMin= 8 ErrMin= 1.12D-08
 ErrMax= 1.12D-08 EMaxC= 1.00D-01 BMatC= 8.05D-15 BMatP= 6.37D-13
 IDIUse=1 WtCom= 1.00D+00 WtEn= 0.00D+00
 Coeff-Com:  0.209D-04-0.285D-03-0.305D-03-0.301D-03 0.117D-02 0.200D-01
 Coeff-Com:  0.127D+00 0.852D+00
 Coeff:      0.209D-04-0.285D-03-0.305D-03-0.301D-03 0.117D-02 0.200D-01
 Coeff:      0.127D+00 0.852D+00
 Gap=     0.209 Goal=   None    Shift=    0.000
 RMSDP=3.09D-09 MaxDP=3.57D-08 DE=-1.71D-12 OVMax= 5.85D-08

 SCF Done:  E(RB+HF-LYP) =  -382.300956609     A.U. after    8 cycles
             Convg  =    0.3092D-08             -V/T =  2.0167
             S**2   =   0.0000
 KE= 3.760178373996D+02 PE=-1.784163992506D+03 EE= 5.761041524075D+02
 Leave Link  502 at Sun Jun 29 23:37:35 2025, MaxMem=    6291456 cpu:       2.3
 (Enter /home/eric/data/opt/apps/gaussian/g03E.01/g03/l701.exe)
 Compute integral first derivatives.
 ... and contract with generalized density number  0.
 Leave Link  701 at Sun Jun 29 23:37:35 2025, MaxMem=    6291456 cpu:       0.0
 (Enter /home/eric/data/opt/apps/gaussian/g03E.01/g03/l702.exe)
 L702 exits ... SP integral derivatives will be done elsewhere.
 Leave Link  702 at Sun Jun 29 23:37:35 2025, MaxMem=    6291456 cpu:       0.0
 (Enter /home/eric/data/opt/apps/gaussian/g03E.01/g03/l703.exe)
 Compute integral first derivatives, UseDBF=F.
 Integral derivatives from FoFDir, PRISM(SPDF).
 Petite list used in FoFDir.
 MinBra= 0 MaxBra= 1 Meth= 1.
 IRaf=       0 NMat=   1 IRICut=       1 DoRegI=T DoRafI=F ISym2E= 1 JSym2E=1.
 Leave Link  703 at Sun Jun 29 23:37:36 2025, MaxMem=    6291456 cpu:       0.7
 (Enter /home/eric/data/opt/apps/gaussian/g03E.01/g03/l716.exe)
 Dipole        =-1.13686838D-13-5.77315973D-15 0.00000000D+00
 ***** Axes restored to original set *****
 -------------------------------------------------------------------
 Center     Atomic                   Forces (Hartrees/Bohr)
 Number     Number              X              Y              Z
 -------------------------------------------------------------------
    1          6           0.008162639   -0.048809066    0.000000000
    2          6           0.018175737    0.006140150    0.000000000
    3          6           0.018851166   -0.001767385    0.000000000
    4          6          -0.008162639    0.048809066    0.000000000
    5          6          -0.018175737   -0.006140150    0.000000000
    6          6          -0.018851166    0.001767385    0.000000000
    7          1          -0.001260340   -0.000183046    0.000000000
    8          1          -0.001341452   -0.003128639    0.000000000
    9          1           0.001260340    0.000183046    0.000000000
   10          1           0.001341452    0.003128639    0.000000000
   11          6          -0.004190621   -0.037975087    0.000000000
   12          6           0.012318354    0.022262096    0.000000000
   13          1          -0.000325408    0.002926195    0.000000000
   14          1          -0.001973188   -0.001484263    0.000000000
   15          1          -0.002635189    0.000053101    0.000000000
   16          6           0.004190621    0.037975087    0.000000000
   17          6          -0.012318354   -0.022262096    0.000000000
   18          1           0.000325408   -0.002926195    0.000000000
   19          1           0.001973188    0.001484263    0.000000000
   20          1           0.002635189   -0.000053101    0.000000000
 -------------------------------------------------------------------
 Cartesian Forces:  Max     0.048809066 RMS     0.013313447
 Leave Link  716 at Sun Jun 29 23:37:36 2025, MaxMem=    6291456 cpu:       0.0
 (Enter /home/eric/data/opt/apps/gaussian/g03E.01/g03/l103.exe)

 GradGradGradGradGradGradGradGradGradGradGradGradGradGradGradGradGradGrad
 Berny optimization.
 Internal  Forces:  Max     0.024013260 RMS     0.007699127
 Search for a local minimum.
 Step number   2 out of a maximum of   5
 All quantities printed in internal units (Hartrees-Bohrs-Radians)
 Update second derivatives using D2CorX and points  1  2
 Trust test= 9.95D-01 RLast= 1.00D-02 DXMaxT set to 5.00D-02
     Eigenvalues ---    0.00235   0.00235   0.01513   0.01617   0.01760
     Eigenvalues ---    0.01760   0.02154   0.02155   0.02156   0.02156
     Eigenvalues ---    0.02157   0.02158   0.02158   0.03069   0.03069
     Eigenvalues ---    0.03069   0.03069   0.15381   0.16000   0.16000
     Eigenvalues ---    0.16000   0.16000   0.16000   0.16000   0.16000
     Eigenvalues ---    0.16000   0.16105   0.21988   0.22000   0.22640
     Eigenvalues ---    0.22980   0.23239   0.24872   0.25000   0.28505
     Eigenvalues ---    0.29842   0.33718   0.33719   0.33720   0.33804
     Eigenvalues ---    0.33863   0.33875   0.33875   0.33875   0.33875
     Eigenvalues ---    0.34369   0.42142   0.42496   0.45942   0.46472
     Eigenvalues ---    0.46473   0.53830   0.60481   0.642051000.00000
     Eigenvalues --- 1000.000001000.000001000.000001000.000001000.00000
     Eigenvalues --- 1000.000001000.000001000.000001000.000001000.00000
     Eigenvalues --- 1000.000001000.000001000.000001000.000001000.00000
     Eigenvalues --- 1000.000001000.000001000.000001000.000001000.00000
     Eigenvalues --- 1000.000001000.000001000.000001000.000001000.00000
     Eigenvalues --- 1000.000001000.000001000.000001000.000001000.00000
     Eigenvalues --- 1000.000001000.000001000.000001000.000001000.00000
 RFO step:  Lambda=-1.53925348D-03.
 Quartic linear search produced a step of  2.00000.
 Maximum step size (   0.050) exceeded in Quadratic search.
    -- Step size scaled by   0.699
 Iteration  1 RMS(Cart)=  0.01169515 RMS(Int)=  0.00004982
 Iteration  2 RMS(Cart)=  0.00008739 RMS(Int)=  0.00000000
 Iteration  3 RMS(Cart)=  0.00000000 RMS(Int)=  0.00000000
 Variable       Old X    -DE/DX   Delta X   Delta X   Delta X     New X
                                 (Linear)    (Quad)   (Total)
    R1        2.63871   0.02284   0.00448   0.01153   0.01600   2.65471
    R2        2.63834   0.02401   0.00473   0.01150   0.01623   2.65457
    R3        2.90831  -0.01457  -0.00435  -0.00429  -0.00863   2.89967
    R4        2.63683   0.01207   0.00241   0.00509   0.00750   2.64433
    R5        2.07789  -0.00114  -0.00031  -0.00017  -0.00047   2.07742
    R6        2.63834   0.02401   0.00473   0.01150   0.01623   2.65457
    R7        2.07767  -0.00308  -0.00086   0.00002  -0.00083   2.07683
    R8        2.63871   0.02284   0.00448   0.01153   0.01600   2.65471
    R9        2.90831  -0.01457  -0.00435  -0.00429  -0.00863   2.89967
   R10        2.63683   0.01207   0.00241   0.00509   0.00750   2.64433
   R11        2.07789  -0.00114  -0.00031  -0.00017  -0.00047   2.07742
   R12        2.07767  -0.00308  -0.00086   0.00002  -0.00083   2.07683
   R13        2.50715   0.02009   0.00306   0.01066   0.01372   2.52087
   R14        2.07554   0.00097   0.00025   0.00044   0.00069   2.07623
   R15        2.07528  -0.00105  -0.00028  -0.00034  -0.00061   2.07467
   R16        2.07506  -0.00258  -0.00071  -0.00004  -0.00075   2.07431
   R17        2.50715   0.02009   0.00306   0.01066   0.01372   2.52087
   R18        2.07554   0.00097   0.00025   0.00044   0.00069   2.07623
   R19        2.07528  -0.00105  -0.00028  -0.00034  -0.00061   2.07467
   R20        2.07506  -0.00258  -0.00071  -0.00004  -0.00075   2.07431
    A1        2.09279  -0.00794  -0.00293   0.00458   0.00165   2.09444
    A2        2.09330  -0.00635  -0.00226   0.00375   0.00149   2.09479
    A3        2.09709   0.01430   0.00520  -0.00834  -0.00314   2.09395
    A4        2.09546   0.00486   0.00182  -0.00312  -0.00130   2.09416
    A5        2.09344  -0.00303  -0.00123   0.00335   0.00212   2.09557
    A6        2.09428  -0.00183  -0.00059  -0.00023  -0.00082   2.09346
    A7        2.09493   0.00308   0.00111  -0.00146  -0.00035   2.09458
    A8        2.09392  -0.00306  -0.00141   0.00647   0.00507   2.09898
    A9        2.09434  -0.00002   0.00030  -0.00501  -0.00472   2.08962
   A10        2.09279  -0.00794  -0.00293   0.00458   0.00165   2.09444
   A11        2.09709   0.01430   0.00520  -0.00834  -0.00314   2.09395
   A12        2.09330  -0.00635  -0.00226   0.00375   0.00149   2.09479
   A13        2.09546   0.00486   0.00182  -0.00312  -0.00130   2.09416
   A14        2.09344  -0.00303  -0.00123   0.00335   0.00212   2.09557
   A15        2.09428  -0.00183  -0.00059  -0.00023  -0.00082   2.09346
   A16        2.09493   0.00308   0.00111  -0.00146  -0.00035   2.09458
   A17        2.09434  -0.00002   0.00030  -0.00501  -0.00472   2.08962
   A18        2.09392  -0.00306  -0.00141   0.00647   0.00507   2.09898
   A19        2.14476   0.01626   0.00659  -0.01710  -0.01051   2.13425
   A20        1.99899  -0.00525  -0.00180   0.00122  -0.00057   1.99842
   A21        2.13944  -0.01101  -0.00479   0.01587   0.01108   2.15052
   A22        2.14108  -0.00272  -0.00143   0.00757   0.00614   2.14722
   A23        2.14207   0.00081   0.00048  -0.00401  -0.00352   2.13855
   A24        2.00003   0.00191   0.00095  -0.00357  -0.00262   1.99741
   A25        2.14476   0.01626   0.00659  -0.01710  -0.01051   2.13425
   A26        1.99899  -0.00525  -0.00180   0.00122  -0.00057   1.99842
   A27        2.13944  -0.01101  -0.00479   0.01587   0.01108   2.15052
   A28        2.14108  -0.00272  -0.00143   0.00757   0.00614   2.14722
   A29        2.14207   0.00081   0.00048  -0.00401  -0.00352   2.13855
   A30        2.00003   0.00191   0.00095  -0.00357  -0.00262   1.99741
    D1        0.00000   0.00000   0.00000   0.00000   0.00000   0.00000
    D2        3.14159   0.00000   0.00000   0.00000   0.00000   3.14159
    D3        3.14159   0.00000   0.00000   0.00000   0.00000   3.14159
    D4        0.00000   0.00000   0.00000   0.00000   0.00000   0.00000
    D5        0.00000   0.00000   0.00000   0.00000   0.00000   0.00000
    D6        3.14159   0.00000   0.00000   0.00000   0.00000   3.14159
[...]
 ! D22   D(3,4,5,9)            180.0            -DE/DX =    0.0                 !
 ! D23   D(11,4,5,6)           180.0            -DE/DX =    0.0                 !
 ! D24   D(11,4,5,9)             0.0            -DE/DX =    0.0                 !
 ! D25   D(3,4,11,12)            0.0            -DE/DX =    0.0                 !
 ! D26   D(3,4,11,13)          180.0            -DE/DX =    0.0                 !
 ! D27   D(5,4,11,12)          180.0            -DE/DX =    0.0                 !
 ! D28   D(5,4,11,13)            0.0            -DE/DX =    0.0                 !
 ! D29   D(4,5,6,1)              0.0            -DE/DX =    0.0                 !
 ! D30   D(4,5,6,10)           180.0            -DE/DX =    0.0                 !
 ! D31   D(9,5,6,1)            180.0            -DE/DX =    0.0                 !
 ! D32   D(9,5,6,10)             0.0            -DE/DX =    0.0                 !
 ! D33   D(4,11,12,14)         180.0            -DE/DX =    0.0                 !
 ! D34   D(4,11,12,15)           0.0            -DE/DX =    0.0                 !
 ! D35   D(13,11,12,14)          0.0            -DE/DX =    0.0                 !
 ! D36   D(13,11,12,15)        180.0            -DE/DX =    0.0                 !
 ! D37   D(1,16,17,19)         180.0            -DE/DX =    0.0                 !
 ! D38   D(1,16,17,20)           0.0            -DE/DX =    0.0                 !
 ! D39   D(18,16,17,19)          0.0            -DE/DX =    0.0                 !
 ! D40   D(18,16,17,20)        180.0            -DE/DX =    0.0                 !
 --------------------------------------------------------------------------------
 GradGradGradGradGradGradGradGradGradGradGradGradGradGradGradGradGradGrad

 Largest change from initial coordinates is atom   19       0.193 Angstoms.
 Leave Link  103 at Sun Jun 29 23:37:47 2025, MaxMem=    6291456 cpu:       0.0
 (Enter /home/eric/data/opt/apps/gaussian/g03E.01/g03/l202.exe)
                          Input orientation:                          
 ---------------------------------------------------------------------
 Center     Atomic     Atomic              Coordinates (Angstroms)
 Number     Number      Type              X           Y           Z
 ---------------------------------------------------------------------
    1          6             0        0.255236   -1.408434    0.000000
    2          6             0        1.327315   -0.471719    0.000000
    3          6             0        1.078663    0.911285    0.000000
    4          6             0       -0.255236    1.408434    0.000000
    5          6             0       -1.327315    0.471719    0.000000
    6          6             0       -1.078663   -0.911285    0.000000
    7          1             0        2.362915   -0.838235    0.000000
    8          1             0        1.917617    1.618116    0.000000
    9          1             0       -2.362915    0.838235    0.000000
   10          1             0       -1.917617   -1.618116    0.000000
   11          6             0       -0.564487    2.877732    0.000000
   12          6             0        0.357320    3.859320    0.000000
   13          1             0       -1.639040    3.113327    0.000000
   14          1             0        0.082478    4.920864    0.000000
   15          1             0        1.433409    3.652185    0.000000
   16          6             0        0.564487   -2.877732    0.000000
   17          6             0       -0.357320   -3.859320    0.000000
   18          1             0        1.639040   -3.113327    0.000000
   19          1             0       -0.082478   -4.920864    0.000000
   20          1             0       -1.433409   -3.652185    0.000000
 ---------------------------------------------------------------------
                    Distance matrix (angstroms):
                    1          2          3          4          5
     1  C    0.000000
     2  C    1.423654   0.000000
     3  C    2.461530   1.405178   0.000000
     4  C    2.862749   2.457527   1.423532   0.000000
     5  C    2.457527   2.817291   2.445802   1.423654   0.000000
     6  C    1.423532   2.445802   2.824149   2.461530   1.405178
     7  H    2.183447   1.098545   2.170281   3.449962   3.915836
     8  H    3.453045   2.171604   1.097020   2.182946   3.441483
     9  H    3.449962   3.915836   3.442353   2.183447   1.098545
    10  H    2.182946   3.441483   3.921169   3.453045   2.171604
    11  C    4.363848   3.846782   2.562588   1.501490   2.524045
    12  C    5.268744   4.438332   3.035004   2.526275   3.783363
    13  H    4.902510   4.653151   3.497843   2.195808   2.659938
    14  H    6.331655   5.534398   4.131478   3.528627   4.667163
    15  H    5.195956   4.125268   2.763762   2.808191   4.211527
    16  C    1.501490   2.524045   3.823745   4.363848   3.846782
    17  C    2.526275   3.783363   4.982040   5.268744   4.438332
    18  H    2.195808   2.659938   4.063437   4.902510   4.653151
    19  H    3.528627   4.667163   5.946613   6.331655   5.534398
    20  H    2.808191   4.211527   5.209200   5.195956   4.125268
                    6          7          8          9         10
     6  C    0.000000
     7  H    3.442353   0.000000
     8  H    3.921169   2.496388   0.000000
     9  H    2.170281   5.014381   4.350996   0.000000
    10  H    1.097020   4.350996   5.018188   2.496388   0.000000
    11  C    3.823745   4.730549   2.783428   2.719171   4.695062
    12  C    4.982040   5.107782   2.730846   4.065296   5.931075
    13  H    4.063437   5.624099   3.858169   2.387476   4.739637
    14  H    5.946613   6.194159   3.778343   4.758971   6.838029
    15  H    5.209200   4.585613   2.090907   4.725504   6.245434
    16  C    2.562588   2.719171   4.695062   4.730549   2.783428
    17  C    3.035004   4.065296   5.931075   5.107782   2.730846
    18  H    3.497843   2.387476   4.739637   5.624099   3.858169
    19  H    4.131478   4.758971   6.838029   6.194159   3.778343
    20  H    2.763762   4.725504   6.245434   4.585613   2.090907
                   11         12         13         14         15
    11  C    0.000000
    12  C    1.346568   0.000000
    13  H    1.100077   2.131188   0.000000
    14  H    2.143117   1.096546   2.496160   0.000000
    15  H    2.142748   1.095843   3.119345   1.853257   0.000000
    16  C    5.865147   6.740237   6.383441   7.813477   6.587476
    17  C    6.740237   7.751653   7.089472   8.791192   7.722009
    18  H    6.383441   7.089472   7.036834   8.183588   6.768636
    19  H    7.813477   8.791192   8.183588   9.843110   8.706037
    20  H    6.587476   7.722009   6.768636   8.706037   7.846812
                   16         17         18         19         20
    16  C    0.000000
    17  C    1.346568   0.000000
    18  H    1.100077   2.131188   0.000000
    19  H    2.143117   1.096546   2.496160   0.000000
    20  H    2.142748   1.095843   3.119345   1.853257   0.000000
 Stoichiometry    C10H10
 Framework group  C2H[SGH(C10H10)]
 Deg. of freedom    19
 Full point group                 C2H
 Largest Abelian subgroup         C2H     NOp   4
 Largest concise Abelian subgroup C2      NOp   2
                         Standard orientation:                         
 ---------------------------------------------------------------------
 Center     Atomic     Atomic              Coordinates (Angstroms)
 Number     Number      Type              X           Y           Z
 ---------------------------------------------------------------------
    1          6             0        1.230614    0.731042    0.000000
    2          6             0       -0.021530    1.408481    0.000000
    3          6             0       -1.230614    0.692491    0.000000
    4          6             0       -1.230614   -0.731042    0.000000
    5          6             0        0.021530   -1.408481    0.000000
    6          6             0        1.230614   -0.692491    0.000000
    7          1             0       -0.039762    2.506875    0.000000
    8          1             0       -2.185933    1.231767    0.000000
    9          1             0        0.039762   -2.506875    0.000000
   10          1             0        2.185933   -1.231767    0.000000
   11          6             0       -2.499395   -1.533954    0.000000
   12          6             0       -3.741106   -1.012995    0.000000
   13          1             0       -2.344882   -2.623125    0.000000
   14          1             0       -4.639824   -1.641261    0.000000
   15          1             0       -3.922822    0.067677    0.000000
   16          6             0        2.499395    1.533954    0.000000
   17          6             0        3.741106    1.012995    0.000000
   18          1             0        2.344882    2.623125    0.000000
   19          1             0        4.639824    1.641261    0.000000
   20          1             0        3.922822   -0.067677    0.000000
 ---------------------------------------------------------------------
 Rotational constants (GHZ):      4.5650015      0.6913220      0.6003980
 Leave Link  202 at Sun Jun 29 23:37:47 2025, MaxMem=    6291456 cpu:       0.0
 (Enter /home/eric/data/opt/apps/gaussian/g03E.01/g03/l601.exe)
 Copying SCF densities to generalized density rwf, ISCF=0 IROHF=0.

 **********************************************************************

            Population analysis using the SCF density.

 **********************************************************************

 Orbital symmetries:
       Occupied  (BU) (AG) (BU) (AG) (AG) (BU) (BU) (AG) (BU) (AG)
                 (AG) (BU) (AG) (BU) (BU) (AG) (AG) (BU) (AG) (AG)
                 (BU) (BU) (BU) (AG) (BU) (BU) (AG) (AU) (BU) (AG)
                 (AG) (BG) (AU) (BG) (BG)
       Virtual   (AU) (AU) (BG) (AU) (BG) (AG) (BU) (AG) (BU) (BU)
                 (AG) (BU) (AG) (BU) (AG) (AG) (BU) (AG) (BU) (BU)
                 (AG) (AG) (BU) (AG) (BU)
 The electronic state is 1-AG.
 Alpha  occ. eigenvalues --  -10.01915 -10.01910 -10.00822 -10.00822 -10.00638
 Alpha  occ. eigenvalues --  -10.00637 -10.00573 -10.00560  -9.99215  -9.99215
 Alpha  occ. eigenvalues --   -0.80812  -0.75338  -0.71671  -0.69919  -0.66505
 Alpha  occ. eigenvalues --   -0.58820  -0.55844  -0.53273  -0.50944  -0.45709
 Alpha  occ. eigenvalues --   -0.43843  -0.41115  -0.39693  -0.39587  -0.37400
 Alpha  occ. eigenvalues --   -0.35101  -0.34785  -0.32321  -0.31045  -0.29233
 Alpha  occ. eigenvalues --   -0.28716  -0.26260  -0.21160  -0.19438  -0.15204
 Alpha virt. eigenvalues --    0.03822   0.08969   0.10998   0.18092   0.27119
 Alpha virt. eigenvalues --    0.33332   0.33872   0.37827   0.37971   0.40992
 Alpha virt. eigenvalues --    0.41040   0.42560   0.43800   0.45599   0.48146
 Alpha virt. eigenvalues --    0.52269   0.54787   0.57691   0.59684   0.61874
 Alpha virt. eigenvalues --    0.64182   0.67521   0.71710   0.77735   0.79132
          Condensed to atoms (all electrons):
              1          2          3          4          5          6
     1  C    4.782108   0.488691  -0.027143  -0.010019  -0.027128   0.488160
     2  C    0.488691   4.815327   0.507491  -0.027128  -0.010569  -0.029866
     3  C   -0.027143   0.507491   4.812621   0.488160  -0.029866  -0.010268
     4  C   -0.010019  -0.027128   0.488160   4.782108   0.488691  -0.027143
     5  C   -0.027128  -0.010569  -0.029866   0.488691   4.815327   0.507491
     6  C    0.488160  -0.029866  -0.010268  -0.027143   0.507491   4.812621
     7  H   -0.024997   0.387807  -0.025088   0.001323   0.000035   0.001306
     8  H    0.001313  -0.024807   0.388038  -0.024687   0.001318   0.000031
     9  H    0.001323   0.000035   0.001306  -0.024997   0.387807  -0.025088
    10  H   -0.024687   0.001318   0.000031   0.001313  -0.024807   0.388038
    11  C    0.000017   0.000747  -0.024303   0.409899  -0.028482   0.000812
    12  C    0.000000   0.000020  -0.004708  -0.024746   0.000676  -0.000007
    13  H   -0.000001  -0.000017   0.001072  -0.026074  -0.003805   0.000019
    14  H    0.000000   0.000000   0.000027   0.001322  -0.000015   0.000000
    15  H    0.000000  -0.000012  -0.000972  -0.003889   0.000017   0.000000
    16  C    0.409899  -0.028482   0.000812   0.000017   0.000747  -0.024303
    17  C   -0.024746   0.000676  -0.000007   0.000000   0.000020  -0.004708
    18  H   -0.026074  -0.003805   0.000019  -0.000001  -0.000017   0.001072
    19  H    0.001322  -0.000015   0.000000   0.000000   0.000000   0.000027
    20  H   -0.003889   0.000017   0.000000   0.000000  -0.000012  -0.000972
              7          8          9         10         11         12
     1  C   -0.024997   0.001313   0.001323  -0.024687   0.000017   0.000000
     2  C    0.387807  -0.024807   0.000035   0.001318   0.000747   0.000020
     3  C   -0.025088   0.388038   0.001306   0.000031  -0.024303  -0.004708
     4  C    0.001323  -0.024687  -0.024997   0.001313   0.409899  -0.024746
     5  C    0.000035   0.001318   0.387807  -0.024807  -0.028482   0.000676
     6  C    0.001306   0.000031  -0.025088   0.388038   0.000812  -0.000007
     7  H    0.588320  -0.003659   0.000002  -0.000033  -0.000014   0.000000
     8  H   -0.003659   0.586820  -0.000033   0.000002  -0.003161  -0.000998
     9  H    0.000002  -0.000033   0.588320  -0.003659  -0.003801   0.000029
    10  H   -0.000033   0.000002  -0.003659   0.586820  -0.000015   0.000000
    11  C   -0.000014  -0.003161  -0.003801  -0.000015   4.799218   0.586290
    12  C    0.000000  -0.000998   0.000029   0.000000   0.586290   4.850424
    13  H    0.000000   0.000020   0.001022  -0.000001   0.386215  -0.026137
    14  H    0.000000  -0.000018  -0.000002   0.000000  -0.023270   0.387597
    15  H    0.000003   0.000666   0.000001   0.000000  -0.023824   0.386157
    16  C   -0.003801  -0.000015  -0.000014  -0.003161   0.000000   0.000000
    17  C    0.000029   0.000000   0.000000  -0.000998   0.000000   0.000000
    18  H    0.001022  -0.000001   0.000000   0.000020   0.000000   0.000000
    19  H   -0.000002   0.000000   0.000000  -0.000018   0.000000   0.000000
    20  H    0.000001   0.000000   0.000003   0.000666   0.000000   0.000000
             13         14         15         16         17         18
     1  C   -0.000001   0.000000   0.000000   0.409899  -0.024746  -0.026074
     2  C   -0.000017   0.000000  -0.000012  -0.028482   0.000676  -0.003805
     3  C    0.001072   0.000027  -0.000972   0.000812  -0.000007   0.000019
     4  C   -0.026074   0.001322  -0.003889   0.000017   0.000000  -0.000001
     5  C   -0.003805  -0.000015   0.000017   0.000747   0.000020  -0.000017
     6  C    0.000019   0.000000   0.000000  -0.024303  -0.004708   0.001072
     7  H    0.000000   0.000000   0.000003  -0.003801   0.000029   0.001022
     8  H    0.000020  -0.000018   0.000666  -0.000015   0.000000  -0.000001
     9  H    0.001022  -0.000002   0.000001  -0.000014   0.000000   0.000000
    10  H   -0.000001   0.000000   0.000000  -0.003161  -0.000998   0.000020
    11  C    0.386215  -0.023270  -0.023824   0.000000   0.000000   0.000000
    12  C   -0.026137   0.387597   0.386157   0.000000   0.000000   0.000000
    13  H    0.592491  -0.004460   0.001968   0.000000   0.000000   0.000000
    14  H   -0.004460   0.584079  -0.024155   0.000000   0.000000   0.000000
    15  H    0.001968  -0.024155   0.587818   0.000000   0.000000   0.000000
    16  C    0.000000   0.000000   0.000000   4.799218   0.586290   0.386215
    17  C    0.000000   0.000000   0.000000   0.586290   4.850424  -0.026137
    18  H    0.000000   0.000000   0.000000   0.386215  -0.026137   0.592491
    19  H    0.000000   0.000000   0.000000  -0.023270   0.387597  -0.004460
    20  H    0.000000   0.000000   0.000000  -0.023824   0.386157   0.001968
             19         20
     1  C    0.001322  -0.003889
     2  C   -0.000015   0.000017
     3  C    0.000000   0.000000
     4  C    0.000000   0.000000
     5  C    0.000000  -0.000012
     6  C    0.000027  -0.000972
     7  H   -0.000002   0.000001
     8  H    0.000000   0.000000
     9  H    0.000000   0.000003
    10  H   -0.000018   0.000666
    11  C    0.000000   0.000000
    12  C    0.000000   0.000000
    13  H    0.000000   0.000000
    14  H    0.000000   0.000000
    15  H    0.000000   0.000000
    16  C   -0.023270  -0.023824
    17  C    0.387597   0.386157
    18  H   -0.004460   0.001968
    19  H    0.584079  -0.024155
    20  H   -0.024155   0.587818
 Mulliken atomic charges:
              1
     1  C   -0.004148
     2  C   -0.077428
     3  C   -0.077221
     4  C   -0.004148
     5  C   -0.077428
     6  C   -0.077221
     7  H    0.077746
     8  H    0.079172
     9  H    0.077746
    10  H    0.079172
    11  C   -0.076327
    12  C   -0.154599
    13  H    0.077686
    14  H    0.078896
    15  H    0.076223
    16  C   -0.076327
    17  C   -0.154599
    18  H    0.077686
    19  H    0.078896
    20  H    0.076223
 Sum of Mulliken charges=   0.00000
 Atomic charges with hydrogens summed into heavy atoms:
              1
     1  C   -0.004148
     2  C    0.000318
     3  C    0.001950
     4  C   -0.004148
     5  C    0.000318
     6  C    0.001950
     7  H    0.000000
     8  H    0.000000
     9  H    0.000000
    10  H    0.000000
    11  C    0.001360
    12  C    0.000520
    13  H    0.000000
    14  H    0.000000
    15  H    0.000000
    16  C    0.001360
    17  C    0.000520
    18  H    0.000000
    19  H    0.000000
    20  H    0.000000
 Sum of Mulliken charges=   0.00000
 Electronic spatial extent (au):  <R**2>=  1850.4085
 Charge=     0.0000 electrons
 Dipole moment (field-independent basis, Debye):
    X=     0.0000    Y=     0.0000    Z=     0.0000  Tot=     0.0000
 Quadrupole moment (field-independent basis, Debye-Ang):
   XX=   -50.6763   YY=   -50.2827   ZZ=   -58.6362
   XY=    -0.2444   XZ=     0.0000   YZ=     0.0000
 Traceless Quadrupole moment (field-independent basis, Debye-Ang):
   XX=     2.5221   YY=     2.9157   ZZ=    -5.4378
   XY=    -0.2444   XZ=     0.0000   YZ=     0.0000
 Octapole moment (field-independent basis, Debye-Ang**2):
  XXX=     0.0000  YYY=     0.0000  ZZZ=     0.0000  XYY=     0.0000
  XXY=     0.0000  XXZ=     0.0000  XZZ=     0.0000  YZZ=     0.0000
  YYZ=     0.0000  XYZ=     0.0000
 Hexadecapole moment (field-independent basis, Debye-Ang**3):
 XXXX= -1666.9788 YYYY=  -515.2946 ZZZZ=   -47.6238 XXXY=  -243.0427
 XXXZ=     0.0000 YYYX=  -247.3703 YYYZ=     0.0000 ZZZX=     0.0000
 ZZZY=     0.0000 XXYY=  -364.2629 XXZZ=  -328.9488 YYZZ=  -108.2197
 XXYZ=     0.0000 YYXZ=     0.0000 ZZXY=   -95.2275
 N-N= 4.461454804880D+02 E-N=-1.776921360451D+03  KE= 3.758214363655D+02
 Symmetry AG   KE= 1.813914431805D+02
 Symmetry BG   KE= 7.825285489840D+00
 Symmetry AU   KE= 4.699981380881D+00
 Symmetry BU   KE= 1.819047263142D+02
 No NMR shielding tensors so no spin-rotation constants.
 Leave Link  601 at Sun Jun 29 23:37:47 2025, MaxMem=    6291456 cpu:       0.0
 (Enter /home/eric/data/opt/apps/gaussian/g03E.01/g03/l9999.exe)


 IF I AM NOT FOR MYSELF, WHO WILL BE?
 BUT IF I AM ONLY FOR MYSELF, WHAT AM I?
 THOUGH A SEEKER SINCE MY BIRTH,
 HERE IS ALL I'VE LEARNED ON EARTH,
 THIS IS THE GIST OF WHAT I KNOW:
 GIVE ADVICE AND BUY A FOE.

 PRESSED FOR RULES AND VERITIES,
 ALL I RECOLLECT ARE THESE:
 FEED A COLD TO STARVE A FEVER,
 ARGUE WITH NO TRUE-BELIEVER.
 THINK-TOO-LONG IS NEVER-ACT,
 SCRATCH A MYTH AND FIND A FACT.

 STITCH IN TIME SAVES TWENTY STITCHES,
 GIVE THE RICH TO PLEASE THEM, RICHES.
 GIVE TO LOVE YOU HEARTH AND HALL,
 BUT DO NOT GIVE ADVICE AT ALL.

                                  -- HILLEL
 Error termination request processed by link 9999.
 Error termination via Lnk1e in /home/eric/data/opt/apps/gaussian/g03E.01/g03/l9999.exe at Sun Jun 29 23:37:47 2025.
 Job cpu time:  0 days  0 hours  0 minutes 18.8 seconds.
 File lengths (MBytes):  RWF=     17 Int=      0 D2E=      0 Chk=     10 Scr=      1
