dvb not allowed to optimize fully                                       
FOpt      RB3LYP                                                      STO-3G              
Number of atoms                            I               20
Charge                                     I                0
Multiplicity                               I                1
Number of electrons                        I               70
Number of alpha electrons                  I               35
Number of beta electrons                   I               35
Number of basis functions                  I               60
Number of independant functions            I               60
Number of point charges in /Mol/           I                0
Number of translation vectors              I                0
Info1-9                                    I   N=           9
          27          27           0           0           0         100
           2          18        -501
Num ILSW                                   I              100
ILSW                                       I   N=         100
           0           0           0           0           2           0
           0           0           0           0         402      200000
           0           0          -1           0           0           0
           0      800000           0           0           1           0
           1           0           0           0     1000000           0
           0           0      100000           0          -1           0
           0           0           0           0           0           0
           0           0           0           1           0           0
           0           0           1      720000      810000           0
           0           0           0           0           0           0
           0           0           0           0           0           0
           0           0           0           0           0           0
           0           0           0           0           0           0
           0           0           0           0           0           0
           0           0           0           0           0           0
           0           0           0           0           0           0
           0           0           0           0
Number of contracted shells                I               30
Highest angular momentum                   I                1
Largest degree of contraction              I                3
Number of primitive shells                 I               90
Pure/Cartesian d shells                    I                0
Pure/Cartesian f shells                    I                0
Virial Ratio                               R      2.017258766311346E+00
SCF Energy                                 R     -3.823076507105122E+02
Total Energy                               R     -3.823076507105122E+02
RMS Force                                  R      1.876941409472587E-03
RMS Density                                R      6.550475347439937E-09
Atomic numbers                             I   N=          20
           6           6           6           6           6           6
           1           1           1           1           6           6
           1           1           1           6           6           1
           1           1
Nuclear charges                            R   N=          20
  6.00000000E+00  6.00000000E+00  6.00000000E+00  6.00000000E+00  6.00000000E+00
  6.00000000E+00  1.00000000E+00  1.00000000E+00  1.00000000E+00  1.00000000E+00
  6.00000000E+00  6.00000000E+00  1.00000000E+00  1.00000000E+00  1.00000000E+00
  6.00000000E+00  6.00000000E+00  1.00000000E+00  1.00000000E+00  1.00000000E+00
Current cartesian coordinates              R   N=          60
  2.32552353E+00  1.38146848E+00  0.00000000E+00 -4.06864984E-02  2.66164368E+00
  0.00000000E+00 -2.32552353E+00  1.30861798E+00  0.00000000E+00 -2.32552353E+00
 -1.38146848E+00  0.00000000E+00  4.06864984E-02 -2.66164368E+00  0.00000000E+00
  2.32552353E+00 -1.30861798E+00  0.00000000E+00 -7.51384913E-02  4.73730756E+00
  0.00000000E+00 -4.13081450E+00  2.32770321E+00  0.00000000E+00  7.51384913E-02
 -4.73730756E+00  0.00000000E+00  4.13081450E+00 -2.32770321E+00  0.00000000E+00
 -4.72317111E+00 -2.89875246E+00  0.00000000E+00 -7.06966510E+00 -1.91428307E+00
  0.00000000E+00 -4.43118492E+00 -4.95698866E+00  0.00000000E+00 -8.76799590E+00
 -3.10153471E+00  0.00000000E+00 -7.41306000E+00  1.27890483E-01  0.00000000E+00
  4.72317111E+00  2.89875246E+00  0.00000000E+00  7.06966510E+00  1.91428307E+00
  0.00000000E+00  4.43118492E+00  4.95698866E+00  0.00000000E+00  8.76799590E+00
  3.10153471E+00  0.00000000E+00  7.41306000E+00 -1.27890483E-01  0.00000000E+00
Int Atom Types                             I   N=          20
           0           0           0           0           0           0
           0           0           0           0           0           0
           0           0           0           0           0           0
           0           0
Force Field                                I                0
MM charges                                 R   N=          20
  0.00000000E+00  0.00000000E+00  0.00000000E+00  0.00000000E+00  0.00000000E+00
  0.00000000E+00  0.00000000E+00  0.00000000E+00  0.00000000E+00  0.00000000E+00
  0.00000000E+00  0.00000000E+00  0.00000000E+00  0.00000000E+00  0.00000000E+00
  0.00000000E+00  0.00000000E+00  0.00000000E+00  0.00000000E+00  0.00000000E+00
Integer atomic weights                     I   N=          20
          12          12          12          12          12          12
           1           1           1           1          12          12
           1           1           1          12          12           1
           1           1
Real atomic weights                        R   N=          20
  1.20000000E+01  1.20000000E+01  1.20000000E+01  1.20000000E+01  1.20000000E+01
  1.20000000E+01  1.00782504E+00  1.00782504E+00  1.00782504E+00  1.00782504E+00
  1.20000000E+01  1.20000000E+01  1.00782504E+00  1.00782504E+00  1.00782504E+00
  1.20000000E+01  1.20000000E+01  1.00782504E+00  1.00782504E+00  1.00782504E+00
Atom residue info                          I   N=          20
           0           0           0           0           0           0
           0           0           0           0           0           0
           0           0           0           0           0           0
           0           0
Atom fragment info                         I   N=          20
           0           0           0           0           0           0
           0           0           0           0           0           0
           0           0           0           0           0           0
           0           0
Atom residue num                           I   N=          20
           0           0           0           0           0           0
           0           0           0           0           0           0
           0           0           0           0           0           0
           0           0
Nuclear spins                              I   N=          20
           0           0           0           0           0           0
           1           1           1           1           0           0
           1           1           1           0           0           1
           1           1
Nuclear ZEff                               R   N=          20
 -3.60000000E+00 -3.60000000E+00 -3.60000000E+00 -3.60000000E+00 -3.60000000E+00
 -3.60000000E+00 -1.00000000E+00 -1.00000000E+00 -1.00000000E+00 -1.00000000E+00
 -3.60000000E+00 -3.60000000E+00 -1.00000000E+00 -1.00000000E+00 -1.00000000E+00
 -3.60000000E+00 -3.60000000E+00 -1.00000000E+00 -1.00000000E+00 -1.00000000E+00
Nuclear QMom                               R   N=          20
  0.00000000E+00  0.00000000E+00  0.00000000E+00  0.00000000E+00  0.00000000E+00
  0.00000000E+00  0.00000000E+00  0.00000000E+00  0.00000000E+00  0.00000000E+00
  0.00000000E+00  0.00000000E+00  0.00000000E+00  0.00000000E+00  0.00000000E+00
  0.00000000E+00  0.00000000E+00  0.00000000E+00  0.00000000E+00  0.00000000E+00
Nuclear GFac                               R   N=          20
  0.00000000E+00  0.00000000E+00  0.00000000E+00  0.00000000E+00  0.00000000E+00
  0.00000000E+00  2.79284600E+00  2.79284600E+00  2.79284600E+00  2.79284600E+00
  0.00000000E+00  0.00000000E+00  2.79284600E+00  2.79284600E+00  2.79284600E+00
  0.00000000E+00  0.00000000E+00  2.79284600E+00  2.79284600E+00  2.79284600E+00
MicOpt                                     I   N=          20
          -1          -1          -1          -1          -1          -1
          -1          -1          -1          -1          -1          -1
          -1          -1          -1          -1          -1          -1
          -1          -1
Constraint Structure                       R   N=          60
  2.28298303E+00  1.31791169E+00  0.00000000E+00 -4.44595553E-04  2.63583936E+00
  0.00000000E+00 -2.28298303E+00  1.31806449E+00  0.00000000E+00 -2.28298303E+00
 -1.31791169E+00  0.00000000E+00  4.44595553E-04 -2.63583936E+00  0.00000000E+00
  2.28298303E+00 -1.31806449E+00  0.00000000E+00 -2.76116384E-05  4.71388636E+00
  0.00000000E+00 -4.08288061E+00  2.35673896E+00  0.00000000E+00  2.76116384E-05
 -4.71388636E+00  0.00000000E+00  4.08288061E+00 -2.35673896E+00  0.00000000E+00
 -4.80339995E+00 -2.77338565E+00  0.00000000E+00 -7.02997501E+00 -1.62426238E+00
  0.00000000E+00 -4.60736605E+00 -4.83952311E+00  0.00000000E+00 -8.82759658E+00
 -2.66153613E+00  0.00000000E+00 -7.22600891E+00  4.41875102E-01  0.00000000E+00
  4.80339995E+00  2.77338565E+00  0.00000000E+00  7.02997501E+00  1.62426238E+00
  0.00000000E+00  4.60736605E+00  4.83952311E+00  0.00000000E+00  8.82759658E+00
  2.66153613E+00  0.00000000E+00  7.22600891E+00 -4.41875102E-01  0.00000000E+00
ONIOM Charges                              I   N=          16
           0           0           0           0           0           0
           0           0           0           0           0           0
           0           0           0           0
ONIOM Multiplicities                       I   N=          16
           1           0           0           0           0           0
           0           0           0           0           0           0
           0           0           0           0
Atom Layers                                I   N=          20
           1           1           1           1           1           1
           1           1           1           1           1           1
           1           1           1           1           1           1
           1           1
Atom Modifiers                             I   N=          20
           0           0           0           0           0           0
           0           0           0           0           0           0
           0           0           0           0           0           0
           0           0
Int Atom Modified Types                    I   N=          20
           0           0           0           0           0           0
           0           0           0           0           0           0
           0           0           0           0           0           0
           0           0
Link Atoms                                 I   N=          20
           0           0           0           0           0           0
           0           0           0           0           0           0
           0           0           0           0           0           0
           0           0
Atom Modified MM Charges                   R   N=          20
  0.00000000E+00  0.00000000E+00  0.00000000E+00  0.00000000E+00  0.00000000E+00
  0.00000000E+00  0.00000000E+00  0.00000000E+00  0.00000000E+00  0.00000000E+00
  0.00000000E+00  0.00000000E+00  0.00000000E+00  0.00000000E+00  0.00000000E+00
  0.00000000E+00  0.00000000E+00  0.00000000E+00  0.00000000E+00  0.00000000E+00
Link Distances                             R   N=          80
  0.00000000E+00  0.00000000E+00  0.00000000E+00  0.00000000E+00  0.00000000E+00
  0.00000000E+00  0.00000000E+00  0.00000000E+00  0.00000000E+00  0.00000000E+00
  0.00000000E+00  0.00000000E+00  0.00000000E+00  0.00000000E+00  0.00000000E+00
  0.00000000E+00  0.00000000E+00  0.00000000E+00  0.00000000E+00  0.00000000E+00
  0.00000000E+00  0.00000000E+00  0.00000000E+00  0.00000000E+00  0.00000000E+00
  0.00000000E+00  0.00000000E+00  0.00000000E+00  0.00000000E+00  0.00000000E+00
  0.00000000E+00  0.00000000E+00  0.00000000E+00  0.00000000E+00  0.00000000E+00
  0.00000000E+00  0.00000000E+00  0.00000000E+00  0.00000000E+00  0.00000000E+00
  0.00000000E+00  0.00000000E+00  0.00000000E+00  0.00000000E+00  0.00000000E+00
  0.00000000E+00  0.00000000E+00  0.00000000E+00  0.00000000E+00  0.00000000E+00
  0.00000000E+00  0.00000000E+00  0.00000000E+00  0.00000000E+00  0.00000000E+00
  0.00000000E+00  0.00000000E+00  0.00000000E+00  0.00000000E+00  0.00000000E+00
  0.00000000E+00  0.00000000E+00  0.00000000E+00  0.00000000E+00  0.00000000E+00
  0.00000000E+00  0.00000000E+00  0.00000000E+00  0.00000000E+00  0.00000000E+00
  0.00000000E+00  0.00000000E+00  0.00000000E+00  0.00000000E+00  0.00000000E+00
  0.00000000E+00  0.00000000E+00  0.00000000E+00  0.00000000E+00  0.00000000E+00
MxBond                                     I                3
NBond                                      I   N=          20
           3           3           3           3           3           3
           1           1           1           1           3           3
           1           1           1           3           3           1
           1           1
IBond                                      I   N=          60
           2           6          16           1           3           7
           2           4           8           3           5          11
           4           6           9           1           5          10
           2           0           0           3           0           0
           5           0           0           6           0           0
           4          12          13          11          14          15
          11           0           0          12           0           0
          12           0           0           1          17          18
          16          19          20          16           0           0
          17           0           0          17           0           0
RBond                                      R   N=          60
  1.50000000E+00  1.50000000E+00  1.00000000E+00  1.50000000E+00  1.50000000E+00
  1.00000000E+00  1.50000000E+00  1.50000000E+00  1.00000000E+00  1.50000000E+00
  1.50000000E+00  1.00000000E+00  1.50000000E+00  1.50000000E+00  1.00000000E+00
  1.50000000E+00  1.50000000E+00  1.00000000E+00  1.00000000E+00  0.00000000E+00
  0.00000000E+00  1.00000000E+00  0.00000000E+00  0.00000000E+00  1.00000000E+00
  0.00000000E+00  0.00000000E+00  1.00000000E+00  0.00000000E+00  0.00000000E+00
  1.00000000E+00  2.00000000E+00  1.00000000E+00  2.00000000E+00  1.00000000E+00
  1.00000000E+00  1.00000000E+00  0.00000000E+00  0.00000000E+00  1.00000000E+00
  0.00000000E+00  0.00000000E+00  1.00000000E+00  0.00000000E+00  0.00000000E+00
  1.00000000E+00  2.00000000E+00  1.00000000E+00  2.00000000E+00  1.00000000E+00
  1.00000000E+00  1.00000000E+00  0.00000000E+00  0.00000000E+00  1.00000000E+00
  0.00000000E+00  0.00000000E+00  1.00000000E+00  0.00000000E+00  0.00000000E+00
Shell types                                I   N=          30
           0          -1           0          -1           0          -1
           0          -1           0          -1           0          -1
           0           0           0           0           0          -1
           0          -1           0           0           0           0
          -1           0          -1           0           0           0
Number of primitives per shell             I   N=          30
           3           3           3           3           3           3
           3           3           3           3           3           3
           3           3           3           3           3           3
           3           3           3           3           3           3
           3           3           3           3           3           3
Shell to atom map                          I   N=          30
           1           1           2           2           3           3
           4           4           5           5           6           6
           7           8           9          10          11          11
          12          12          13          14          15          16
          16          17          17          18          19          20
Primitive exponents                        R   N=          90
  7.16168373E+01  1.30450963E+01  3.53051216E+00  2.94124936E+00  6.83483096E-01
  2.22289916E-01  7.16168373E+01  1.30450963E+01  3.53051216E+00  2.94124936E+00
  6.83483096E-01  2.22289916E-01  7.16168373E+01  1.30450963E+01  3.53051216E+00
  2.94124936E+00  6.83483096E-01  2.22289916E-01  7.16168373E+01  1.30450963E+01
  3.53051216E+00  2.94124936E+00  6.83483096E-01  2.22289916E-01  7.16168373E+01
  1.30450963E+01  3.53051216E+00  2.94124936E+00  6.83483096E-01  2.22289916E-01
  7.16168373E+01  1.30450963E+01  3.53051216E+00  2.94124936E+00  6.83483096E-01
  2.22289916E-01  3.42525091E+00  6.23913730E-01  1.68855404E-01  3.42525091E+00
  6.23913730E-01  1.68855404E-01  3.42525091E+00  6.23913730E-01  1.68855404E-01
  3.42525091E+00  6.23913730E-01  1.68855404E-01  7.16168373E+01  1.30450963E+01
  3.53051216E+00  2.94124936E+00  6.83483096E-01  2.22289916E-01  7.16168373E+01
  1.30450963E+01  3.53051216E+00  2.94124936E+00  6.83483096E-01  2.22289916E-01
  3.42525091E+00  6.23913730E-01  1.68855404E-01  3.42525091E+00  6.23913730E-01
  1.68855404E-01  3.42525091E+00  6.23913730E-01  1.68855404E-01  7.16168373E+01
  1.30450963E+01  3.53051216E+00  2.94124936E+00  6.83483096E-01  2.22289916E-01
  7.16168373E+01  1.30450963E+01  3.53051216E+00  2.94124936E+00  6.83483096E-01
  2.22289916E-01  3.42525091E+00  6.23913730E-01  1.68855404E-01  3.42525091E+00
  6.23913730E-01  1.68855404E-01  3.42525091E+00  6.23913730E-01  1.68855404E-01
Contraction coefficients                   R   N=          90
  1.54328967E-01  5.35328142E-01  4.44634542E-01 -9.99672292E-02  3.99512826E-01
  7.00115469E-01  1.54328967E-01  5.35328142E-01  4.44634542E-01 -9.99672292E-02
  3.99512826E-01  7.00115469E-01  1.54328967E-01  5.35328142E-01  4.44634542E-01
 -9.99672292E-02  3.99512826E-01  7.00115469E-01  1.54328967E-01  5.35328142E-01
  4.44634542E-01 -9.99672292E-02  3.99512826E-01  7.00115469E-01  1.54328967E-01
  5.35328142E-01  4.44634542E-01 -9.99672292E-02  3.99512826E-01  7.00115469E-01
  1.54328967E-01  5.35328142E-01  4.44634542E-01 -9.99672292E-02  3.99512826E-01
  7.00115469E-01  1.54328967E-01  5.35328142E-01  4.44634542E-01  1.54328967E-01
  5.35328142E-01  4.44634542E-01  1.54328967E-01  5.35328142E-01  4.44634542E-01
  1.54328967E-01  5.35328142E-01  4.44634542E-01  1.54328967E-01  5.35328142E-01
  4.44634542E-01 -9.99672292E-02  3.99512826E-01  7.00115469E-01  1.54328967E-01
  5.35328142E-01  4.44634542E-01 -9.99672292E-02  3.99512826E-01  7.00115469E-01
  1.54328967E-01  5.35328142E-01  4.44634542E-01  1.54328967E-01  5.35328142E-01
  4.44634542E-01  1.54328967E-01  5.35328142E-01  4.44634542E-01  1.54328967E-01
  5.35328142E-01  4.44634542E-01 -9.99672292E-02  3.99512826E-01  7.00115469E-01
  1.54328967E-01  5.35328142E-01  4.44634542E-01 -9.99672292E-02  3.99512826E-01
  7.00115469E-01  1.54328967E-01  5.35328142E-01  4.44634542E-01  1.54328967E-01
  5.35328142E-01  4.44634542E-01  1.54328967E-01  5.35328142E-01  4.44634542E-01
P(S=P) Contraction coefficients            R   N=          90
  0.00000000E+00  0.00000000E+00  0.00000000E+00  1.55916275E-01  6.07683719E-01
  3.91957393E-01  0.00000000E+00  0.00000000E+00  0.00000000E+00  1.55916275E-01
  6.07683719E-01  3.91957393E-01  0.00000000E+00  0.00000000E+00  0.00000000E+00
  1.55916275E-01  6.07683719E-01  3.91957393E-01  0.00000000E+00  0.00000000E+00
  0.00000000E+00  1.55916275E-01  6.07683719E-01  3.91957393E-01  0.00000000E+00
  0.00000000E+00  0.00000000E+00  1.55916275E-01  6.07683719E-01  3.91957393E-01
  0.00000000E+00  0.00000000E+00  0.00000000E+00  1.55916275E-01  6.07683719E-01
  3.91957393E-01  0.00000000E+00  0.00000000E+00  0.00000000E+00  0.00000000E+00
  0.00000000E+00  0.00000000E+00  0.00000000E+00  0.00000000E+00  0.00000000E+00
  0.00000000E+00  0.00000000E+00  0.00000000E+00  0.00000000E+00  0.00000000E+00
  0.00000000E+00  1.55916275E-01  6.07683719E-01  3.91957393E-01  0.00000000E+00
  0.00000000E+00  0.00000000E+00  1.55916275E-01  6.07683719E-01  3.91957393E-01
  0.00000000E+00  0.00000000E+00  0.00000000E+00  0.00000000E+00  0.00000000E+00
  0.00000000E+00  0.00000000E+00  0.00000000E+00  0.00000000E+00  0.00000000E+00
  0.00000000E+00  0.00000000E+00  1.55916275E-01  6.07683719E-01  3.91957393E-01
  0.00000000E+00  0.00000000E+00  0.00000000E+00  1.55916275E-01  6.07683719E-01
  3.91957393E-01  0.00000000E+00  0.00000000E+00  0.00000000E+00  0.00000000E+00
  0.00000000E+00  0.00000000E+00  0.00000000E+00  0.00000000E+00  0.00000000E+00
Coordinates of each shell                  R   N=          90
  2.32552353E+00  1.38146848E+00  0.00000000E+00  2.32552353E+00  1.38146848E+00
  0.00000000E+00 -4.06864984E-02  2.66164368E+00  0.00000000E+00 -4.06864984E-02
  2.66164368E+00  0.00000000E+00 -2.32552353E+00  1.30861798E+00  0.00000000E+00
 -2.32552353E+00  1.30861798E+00  0.00000000E+00 -2.32552353E+00 -1.38146848E+00
  0.00000000E+00 -2.32552353E+00 -1.38146848E+00  0.00000000E+00  4.06864984E-02
 -2.66164368E+00  0.00000000E+00  4.06864984E-02 -2.66164368E+00  0.00000000E+00
  2.32552353E+00 -1.30861798E+00  0.00000000E+00  2.32552353E+00 -1.30861798E+00
  0.00000000E+00 -7.51384913E-02  4.73730756E+00  0.00000000E+00 -4.13081450E+00
  2.32770321E+00  0.00000000E+00  7.51384913E-02 -4.73730756E+00  0.00000000E+00
  4.13081450E+00 -2.32770321E+00  0.00000000E+00 -4.72317111E+00 -2.89875246E+00
  0.00000000E+00 -4.72317111E+00 -2.89875246E+00  0.00000000E+00 -7.06966510E+00
 -1.91428307E+00  0.00000000E+00 -7.06966510E+00 -1.91428307E+00  0.00000000E+00
 -4.43118492E+00 -4.95698866E+00  0.00000000E+00 -8.76799590E+00 -3.10153471E+00
  0.00000000E+00 -7.41306000E+00  1.27890483E-01  0.00000000E+00  4.72317111E+00
  2.89875246E+00  0.00000000E+00  4.72317111E+00  2.89875246E+00  0.00000000E+00
  7.06966510E+00  1.91428307E+00  0.00000000E+00  7.06966510E+00  1.91428307E+00
  0.00000000E+00  4.43118492E+00  4.95698866E+00  0.00000000E+00  8.76799590E+00
  3.10153471E+00  0.00000000E+00  7.41306000E+00 -1.27890483E-01  0.00000000E+00
Alpha Orbital Energies                     R   N=          60
 -1.00191468E+01 -1.00190965E+01 -1.00082198E+01 -1.00082186E+01 -1.00063766E+01
 -1.00063744E+01 -1.00057347E+01 -1.00055958E+01 -9.99214896E+00 -9.99214888E+00
 -8.08120434E-01 -7.53382437E-01 -7.16712029E-01 -6.99194150E-01 -6.65054157E-01
 -5.88198882E-01 -5.58438546E-01 -5.32725407E-01 -5.09435523E-01 -4.57086452E-01
 -4.38430841E-01 -4.11154746E-01 -3.96930533E-01 -3.95873717E-01 -3.73998645E-01
 -3.51006356E-01 -3.47846978E-01 -3.23213398E-01 -3.10445742E-01 -2.92328792E-01
 -2.87156257E-01 -2.62597301E-01 -2.11595236E-01 -1.94379962E-01 -1.52035321E-01
  3.82156796E-02  8.96872370E-02  1.09976396E-01  1.80921240E-01  2.71185192E-01
  3.33321236E-01  3.38723239E-01  3.78267218E-01  3.79710960E-01  4.09921612E-01
  4.10399575E-01  4.25596674E-01  4.38004485E-01  4.55994850E-01  4.81460327E-01
  5.22689564E-01  5.47870767E-01  5.76912349E-01  5.96839125E-01  6.18736757E-01
  6.41822976E-01  6.75210489E-01  7.17104930E-01  7.77351424E-01  7.91316929E-01
Alpha MO coefficients                      R   N=        3600
  6.99093535E-01  3.15297687E-02 -8.05944462E-04 -3.56555426E-04  0.00000000E+00
 -2.00225774E-02 -7.76769750E-03 -3.70191393E-03  2.35373550E-03  0.00000000E+00
  2.00216878E-02  7.73179505E-03  3.00740597E-04 -4.35308137E-03  0.00000000E+00
 -6.99093535E-01 -3.15297687E-02 -8.05944462E-04 -3.56555426E-04  0.00000000E+00
  2.00225774E-02  7.76769750E-03 -3.70191393E-03  2.35373550E-03  0.00000000E+00
 -2.00216878E-02 -7.73179505E-03  3.00740597E-04 -4.35308137E-03  0.00000000E+00
  3.43440674E-04 -3.43778581E-04 -3.43440674E-04  3.43778581E-04  3.06541420E-02
  6.83216620E-03  3.37558982E-03  2.25621177E-03  0.00000000E+00 -1.12745737E-04
 -5.10529615E-04 -2.80620484E-04 -7.23492647E-05  0.00000000E+00 -3.54671746E-04
  3.21312350E-05  1.50318944E-04 -3.06541420E-02 -6.83216620E-03  3.37558982E-03
  2.25621177E-03  0.00000000E+00  1.12745737E-04  5.10529615E-04 -2.80620484E-04
 -7.23492647E-05  0.00000000E+00  3.54671746E-04 -3.21312350E-05 -1.50318944E-04
  6.99082748E-01  3.13181794E-02 -5.58629547E-04 -2.02330520E-04  0.00000000E+00
 -2.05432363E-02 -6.94038310E-03 -3.98088539E-03  2.02581086E-03  0.00000000E+00
 -2.03665501E-02 -6.87882750E-03  1.41294005E-04  4.42743028E-03  0.00000000E+00
  6.99082748E-01  3.13181794E-02  5.58629547E-04  2.02330520E-04  0.00000000E+00
 -2.05432363E-02 -6.94038310E-03  3.98088539E-03 -2.02581086E-03  0.00000000E+00
 -2.03665501E-02 -6.87882750E-03 -1.41294005E-04 -4.42743028E-03  0.00000000E+00
  2.28161793E-04  2.30918124E-04  2.28161793E-04  2.30918124E-04 -3.11017709E-02
 -6.90724867E-03 -3.40984700E-03 -2.27831994E-03  0.00000000E+00  1.27389910E-04
  5.14624074E-04  2.88213508E-04  7.35177008E-05  0.00000000E+00  3.66847378E-04
 -3.11531468E-05 -1.40943152E-04 -3.11017709E-02 -6.90724867E-03  3.40984700E-03
  2.27831994E-03  0.00000000E+00  1.27389910E-04  5.14624074E-04 -2.88213508E-04
 -7.35177008E-05  0.00000000E+00  3.66847378E-04 -3.11531468E-05 -1.40943152E-04
 -3.13190790E-02  3.99603189E-03  3.63425899E-03  2.10969187E-03  0.00000000E+00
  7.76381602E-03  5.00042098E-04  6.19353625E-05 -1.28951066E-04  0.00000000E+00
 -5.96493585E-03 -3.85862441E-04 -1.10101653E-04  1.14714702E-04  0.00000000E+00
  3.13190790E-02 -3.99603189E-03  3.63425899E-03  2.10969187E-03  0.00000000E+00
 -7.76381602E-03 -5.00042098E-04  6.19353625E-05 -1.28951066E-04  0.00000000E+00
  5.96493585E-03  3.85862441E-04 -1.10101653E-04  1.14714702E-04  0.00000000E+00
 -6.82426216E-05 -7.00461223E-05  6.82426216E-05  7.00461223E-05  6.99723832E-01
  3.06915500E-02 -1.21628291E-03  4.17777229E-04  0.00000000E+00 -8.25502481E-03
 -7.58232534E-03 -4.23352088E-03  1.75398466E-03  0.00000000E+00 -6.39342037E-03
  2.10904965E-04  1.87375353E-04 -6.99723832E-01 -3.06915500E-02 -1.21628291E-03
  4.17777229E-04  0.00000000E+00  8.25502481E-03  7.58232534E-03 -4.23352088E-03
  1.75398466E-03  0.00000000E+00  6.39342037E-03 -2.10904965E-04 -1.87375353E-04
  3.16014268E-02 -3.93913701E-03 -3.61032427E-03 -2.08673667E-03  0.00000000E+00
 -1.10206274E-02 -5.78131924E-04 -1.25022730E-04  1.77103978E-04  0.00000000E+00
 -8.10883328E-03 -3.58951310E-04 -8.72463045E-05  2.07268373E-04  0.00000000E+00
  3.16014268E-02 -3.93913701E-03  3.61032427E-03  2.08673667E-03  0.00000000E+00
 -1.10206274E-02 -5.78131924E-04  1.25022730E-04 -1.77103978E-04  0.00000000E+00
 -8.10883328E-03 -3.58951310E-04  8.72463045E-05 -2.07268373E-04  0.00000000E+00
  7.62590402E-05 -7.69742284E-05  7.62590402E-05 -7.69742284E-05  6.99647210E-01
  3.06713295E-02 -1.22644918E-03  4.11296316E-04  0.00000000E+00 -8.24880745E-03
 -7.58076550E-03 -4.23179994E-03  1.75490518E-03  0.00000000E+00 -6.39123876E-03
  2.11148265E-04  1.88001309E-04  6.99647210E-01  3.06713295E-02  1.22644918E-03
 -4.11296316E-04  0.00000000E+00 -8.24880745E-03 -7.58076550E-03  4.23179994E-03
 -1.75490518E-03  0.00000000E+00 -6.39123876E-03  2.11148265E-04  1.88001309E-04
  1.18248784E-03 -2.31000739E-04  2.79329811E-03 -4.51604176E-03  0.00000000E+00
  5.10084595E-01  2.68721016E-02 -2.71177306E-03 -2.10117075E-03  0.00000000E+00
 -4.79363900E-01 -2.58289711E-02 -3.29140740E-03 -1.45115477E-03  0.00000000E+00
  1.18248784E-03 -2.31000739E-04 -2.79329811E-03  4.51604176E-03  0.00000000E+00
  5.10084595E-01  2.68721016E-02  2.71177306E-03  2.10117075E-03  0.00000000E+00
 -4.79363900E-01 -2.58289711E-02  3.29140740E-03  1.45115477E-03  0.00000000E+00
 -4.70689556E-03  4.44748230E-03 -4.70689556E-03  4.44748230E-03  2.44434522E-03
  1.06964447E-04  4.40094651E-05 -9.48500720E-05  0.00000000E+00  2.37014299E-04
  2.32230085E-05 -1.97185289E-05  3.89799165E-05  0.00000000E+00 -2.47306070E-05
  4.11986919E-06 -1.57596558E-04  2.44434522E-03  1.06964447E-04 -4.40094651E-05
  9.48500720E-05  0.00000000E+00  2.37014299E-04  2.32230085E-05  1.97185289E-05
 -3.89799165E-05  0.00000000E+00 -2.47306070E-05  4.11986919E-06 -1.57596558E-04
  3.01282373E-02 -8.09409045E-03  2.90498351E-03  1.50326881E-03  0.00000000E+00
  5.14004363E-01  2.71817028E-02 -2.75964445E-03 -2.30887131E-03  0.00000000E+00
 -4.74202844E-01 -2.58162118E-02 -3.51295284E-03 -1.44612762E-03  0.00000000E+00
 -3.01282373E-02  8.09409045E-03  2.90498351E-03  1.50326881E-03  0.00000000E+00
 -5.14004363E-01 -2.71817028E-02 -2.75964445E-03 -2.30887131E-03  0.00000000E+00
  4.74202844E-01  2.58162118E-02 -3.51295284E-03 -1.44612762E-03  0.00000000E+00
 -4.75933522E-03  4.43518519E-03  4.75933522E-03 -4.43518519E-03 -8.50353025E-03
 -4.98148769E-04  6.48781281E-05 -2.16906927E-05  0.00000000E+00  9.66143872E-04
  2.31026904E-04  1.18002713E-04  3.52110881E-05  0.00000000E+00  1.39843400E-04
  9.40272826E-06 -1.51098970E-04  8.50353025E-03  4.98148769E-04  6.48781281E-05
 -2.16906927E-05  0.00000000E+00 -9.66143872E-04 -2.31026904E-04  1.18002713E-04
  3.52110881E-05  0.00000000E+00 -1.39843400E-04 -9.40272826E-06  1.51098970E-04
 -1.15424332E-03  3.28297436E-04  2.54281753E-03 -4.53538130E-03  0.00000000E+00