dvb not allowed to optimize fully                                       
FOpt      RB3LYP                                                      STO-3G              
Number of atoms                            I               20
Charge                                     I                0
Multiplicity                               I                1
Number of electrons                        I               70
Number of alpha electrons                  I               35
Number of beta electrons                   I               35
Number of basis functions                  I               60
Number of independant functions            I               60
Number of point charges in /Mol/           I                0
Number of translation vectors              I                0
Info1-9                                    I   N=           9
          82          82           0           0           0         100
           2          18        -501
Num ILSW                                   I              100
ILSW                                       I   N=         100
           0           0           0           0           2           0
           0           0           0           0         402      200000
           0           0          -1           0           0           0
           0      800000           0           0           1           0
           1           0           0           0     1000000           0
           0           0      100000           0          -1           0
           0           0           0           0           0           0
           0           0           0           1           0           0
           0           0           1      720000      810000           0
           0           0           0           0           0           0
           0           0           0           0           0           0
           0           0           0           0           0           0
           0           0           0           0           0           0
           0           0           0           0           0           0
           0           0           0           0           0           0
           0           0           0           0           0           0
           0           0           0           0
Number of contracted shells                I               30
Highest angular momentum                   I                1
Largest degree of contraction              I                3
Number of primitive shells                 I               90
Pure/Cartesian d shells                    I                0
Pure/Cartesian f shells                    I                0
Virial Ratio                               R      2.016812743467376E+00
SCF Energy                                 R     -3.823039128125449E+02
Total Energy                               R     -3.823039128125449E+02
RMS Force                                  R      5.341121540999968E-03
RMS Density                                R      8.086466519694927E-09
Atomic numbers                             I   N=          20
           6           6           6           6           6           1
           1           1           6           6           1           1
           1           6           1           6           1           1
           6           1
Nuclear charges                            R   N=          20
  6.00000000E+00  6.00000000E+00  6.00000000E+00  6.00000000E+00  6.00000000E+00
  1.00000000E+00  1.00000000E+00  1.00000000E+00  6.00000000E+00  6.00000000E+00
  1.00000000E+00  1.00000000E+00  1.00000000E+00  6.00000000E+00  1.00000000E+00
  6.00000000E+00  1.00000000E+00  1.00000000E+00  6.00000000E+00  1.00000000E+00
Current cartesian coordinates              R   N=          60
 -4.44241025E-01  2.62480593E+00  2.46519033E-31  2.05025281E+00  1.67388527E+00
  4.93038066E-31  2.49451269E+00 -9.35270714E-01  9.86076132E-32  4.44241025E-01
 -2.62480593E+00  2.95822839E-31 -2.05025281E+00 -1.67388527E+00  2.46519033E-31
  3.64444794E+00  2.99582215E+00  0.00000000E+00  4.43979729E+00 -1.65334931E+00
 -1.97215226E-31 -3.64444794E+00 -2.99582215E+00  1.97215226E-31  9.23819808E-01
 -5.40877276E+00 -6.90253292E-31 -9.23819808E-01 -7.15409385E+00 -7.39557099E-31
 -2.90207583E+00 -6.52211257E+00 -9.36772325E-31  2.92520797E+00 -5.96581006E+00
 -3.94430453E-31 -5.38634183E-01 -9.16752023E+00 -2.56379794E-30 -9.23819808E-01
  5.40877276E+00 -9.86076132E-32 -2.92520797E+00  5.96581006E+00  3.94430453E-31
  9.23819808E-01  7.15409385E+00  4.93038066E-32  2.90207583E+00  6.52211257E+00
 -4.19082356E-31  5.38634183E-01  9.16752023E+00 -4.93038066E-31 -2.49451269E+00
  9.35270714E-01 -1.97215226E-31 -4.43979729E+00  1.65334931E+00  0.00000000E+00
Int Atom Types                             I   N=          20
           0           0           0           0           0           0
           0           0           0           0           0           0
           0           0           0           0           0           0
           0           0
Force Field                                I                0
MM charges                                 R   N=          20
  0.00000000E+00  0.00000000E+00  0.00000000E+00  0.00000000E+00  0.00000000E+00
  0.00000000E+00  0.00000000E+00  0.00000000E+00  0.00000000E+00  0.00000000E+00
  0.00000000E+00  0.00000000E+00  0.00000000E+00  0.00000000E+00  0.00000000E+00
  0.00000000E+00  0.00000000E+00  0.00000000E+00  0.00000000E+00  0.00000000E+00
Integer atomic weights                     I   N=          20
          12          12          12          12          12           1
           1           1          12          12           1           1
           1          12           1          12           1           1
          12           1
Real atomic weights                        R   N=          20
  1.20000000E+01  1.20000000E+01  1.20000000E+01  1.20000000E+01  1.20000000E+01
  1.00782504E+00  1.00782504E+00  1.00782504E+00  1.20000000E+01  1.20000000E+01
  1.00782504E+00  1.00782504E+00  1.00782504E+00  1.20000000E+01  1.00782504E+00
  1.20000000E+01  1.00782504E+00  1.00782504E+00  1.20000000E+01  1.00782504E+00
Atom residue info                          I   N=          20
           0           0           0           0           0           0
           0           0           0           0           0           0
           0           0           0           0           0           0
           0           0
Atom fragment info                         I   N=          20
           0           0           0           0           0           0
           0           0           0           0           0           0
           0           0           0           0           0           0
           0           0
Atom residue num                           I   N=          20
           0           0           0           0           0           0
           0           0           0           0           0           0
           0           0           0           0           0           0
           0           0
Nuclear spins                              I   N=          20
           0           0           0           0           0           1
           1           1           0           0           1           1
           1           0           1           0           1           1
           0           1
Nuclear ZEff                               R   N=          20
 -3.60000000E+00 -3.60000000E+00 -3.60000000E+00 -3.60000000E+00 -3.60000000E+00
 -1.00000000E+00 -1.00000000E+00 -1.00000000E+00 -3.60000000E+00 -3.60000000E+00
 -1.00000000E+00 -1.00000000E+00 -1.00000000E+00 -3.60000000E+00 -1.00000000E+00
 -3.60000000E+00 -1.00000000E+00 -1.00000000E+00 -3.60000000E+00 -1.00000000E+00
Nuclear QMom                               R   N=          20
  0.00000000E+00  0.00000000E+00  0.00000000E+00  0.00000000E+00  0.00000000E+00
  0.00000000E+00  0.00000000E+00  0.00000000E+00  0.00000000E+00  0.00000000E+00
  0.00000000E+00  0.00000000E+00  0.00000000E+00  0.00000000E+00  0.00000000E+00
  0.00000000E+00  0.00000000E+00  0.00000000E+00  0.00000000E+00  0.00000000E+00
Nuclear GFac                               R   N=          20
  0.00000000E+00  0.00000000E+00  0.00000000E+00  0.00000000E+00  0.00000000E+00
  2.79284600E+00  2.79284600E+00  2.79284600E+00  0.00000000E+00  0.00000000E+00
  2.79284600E+00  2.79284600E+00  2.79284600E+00  0.00000000E+00  2.79284600E+00
  0.00000000E+00  2.79284600E+00  2.79284600E+00  0.00000000E+00  2.79284600E+00
MicOpt                                     I   N=          20
          -1          -1          -1          -1          -1          -1
          -1          -1          -1          -1          -1          -1
          -1          -1          -1          -1          -1          -1
          -1          -1
Constraint Structure                       R   N=          60
 -4.61852305E-01  2.57175188E+00  6.16297582E-33  2.00333992E+00  1.65634083E+00
 -6.16297582E-33  2.45418933E+00 -9.29862848E-01 -2.46519033E-32  4.61852305E-01
 -2.57175188E+00 -6.16297582E-33 -2.00333992E+00 -1.65634083E+00 -4.93038066E-32
  3.59463390E+00  2.97882104E+00 -4.93038066E-32  4.39972104E+00 -1.64010810E+00
 -2.46519033E-32 -3.59463390E+00 -2.97882104E+00  1.23259516E-32  9.26183825E-01
 -5.34094201E+00  1.23259516E-32 -9.26183476E-01 -7.07559227E+00  3.69778549E-32
 -2.91713100E+00 -6.45506713E+00  1.54074396E-31  2.92132641E+00 -5.91282406E+00
  1.23259516E-31 -5.48034554E-01 -9.06192446E+00 -3.69778549E-32 -9.26183825E-01
  5.34094201E+00  0.00000000E+00 -2.92132641E+00  5.91282406E+00 -9.86076132E-32
  9.26183476E-01  7.07559227E+00  7.39557099E-32  2.91713100E+00  6.45506713E+00
 -3.69778549E-32  5.48034554E-01  9.06192446E+00  7.39557099E-32 -2.45418933E+00
  9.29862848E-01 -2.46519033E-32 -4.39972104E+00  1.64010810E+00  0.00000000E+00
ONIOM Charges                              I   N=          16
           0           0           0           0           0           0
           0           0           0           0           0           0
           0           0           0           0
ONIOM Multiplicities                       I   N=          16
           1           0           0           0           0           0
           0           0           0           0           0           0
           0           0           0           0
Atom Layers                                I   N=          20
           1           1           1           1           1           1
           1           1           1           1           1           1
           1           1           1           1           1           1
           1           1
Atom Modifiers                             I   N=          20
           0           0           0           0           0           0
           0           0           0           0           0           0
           0           0           0           0           0           0
           0           0
Int Atom Modified Types                    I   N=          20
           0           0           0           0           0           0
           0           0           0           0           0           0
           0           0           0           0           0           0
           0           0
Link Atoms                                 I   N=          20
           0           0           0           0           0           0
           0           0           0           0           0           0
           0           0           0           0           0           0
           0           0
Atom Modified MM Charges                   R   N=          20
  0.00000000E+00  0.00000000E+00  0.00000000E+00  0.00000000E+00  0.00000000E+00
  0.00000000E+00  0.00000000E+00  0.00000000E+00  0.00000000E+00  0.00000000E+00
  0.00000000E+00  0.00000000E+00  0.00000000E+00  0.00000000E+00  0.00000000E+00
  0.00000000E+00  0.00000000E+00  0.00000000E+00  0.00000000E+00  0.00000000E+00
Link Distances                             R   N=          80
  0.00000000E+00  0.00000000E+00  0.00000000E+00  0.00000000E+00  0.00000000E+00
  0.00000000E+00  0.00000000E+00  0.00000000E+00  0.00000000E+00  0.00000000E+00
  0.00000000E+00  0.00000000E+00  0.00000000E+00  0.00000000E+00  0.00000000E+00
  0.00000000E+00  0.00000000E+00  0.00000000E+00  0.00000000E+00  0.00000000E+00
  0.00000000E+00  0.00000000E+00  0.00000000E+00  0.00000000E+00  0.00000000E+00
  0.00000000E+00  0.00000000E+00  0.00000000E+00  0.00000000E+00  0.00000000E+00
  0.00000000E+00  0.00000000E+00  0.00000000E+00  0.00000000E+00  0.00000000E+00
  0.00000000E+00  0.00000000E+00  0.00000000E+00  0.00000000E+00  0.00000000E+00
  0.00000000E+00  0.00000000E+00  0.00000000E+00  0.00000000E+00  0.00000000E+00
  0.00000000E+00  0.00000000E+00  0.00000000E+00  0.00000000E+00  0.00000000E+00
  0.00000000E+00  0.00000000E+00  0.00000000E+00  0.00000000E+00  0.00000000E+00
  0.00000000E+00  0.00000000E+00  0.00000000E+00  0.00000000E+00  0.00000000E+00
  0.00000000E+00  0.00000000E+00  0.00000000E+00  0.00000000E+00  0.00000000E+00
  0.00000000E+00  0.00000000E+00  0.00000000E+00  0.00000000E+00  0.00000000E+00
  0.00000000E+00  0.00000000E+00  0.00000000E+00  0.00000000E+00  0.00000000E+00
  0.00000000E+00  0.00000000E+00  0.00000000E+00  0.00000000E+00  0.00000000E+00
MxBond                                     I                3
NBond                                      I   N=          20
           3           3           3           3           3           1
           1           1           3           3           1           1
           1           3           1           3           1           1
           3           1
IBond                                      I   N=          60
           2          14          19           1           3           6
           2           4           7           3           5           9
           4           8          19           2           0           0
           3           0           0           5           0           0
           4          10          12           9          11          13
          10           0           0           9           0           0
          10           0           0           1          15          16
          14           0           0          14          17          18
          16           0           0          16           0           0
           1           5          20          19           0           0
RBond                                      R   N=          60
  1.50000000E+00  1.00000000E+00  2.00000000E+00  1.50000000E+00  1.50000000E+00
  1.00000000E+00  1.50000000E+00  2.00000000E+00  1.00000000E+00  2.00000000E+00
  1.50000000E+00  1.00000000E+00  1.50000000E+00  1.00000000E+00  1.50000000E+00
  1.00000000E+00  0.00000000E+00  0.00000000E+00  1.00000000E+00  0.00000000E+00
  0.00000000E+00  1.00000000E+00  0.00000000E+00  0.00000000E+00  1.00000000E+00
  2.00000000E+00  1.00000000E+00  2.00000000E+00  1.00000000E+00  1.00000000E+00
  1.00000000E+00  0.00000000E+00  0.00000000E+00  1.00000000E+00  0.00000000E+00
  0.00000000E+00  1.00000000E+00  0.00000000E+00  0.00000000E+00  1.00000000E+00
  1.00000000E+00  2.00000000E+00  1.00000000E+00  0.00000000E+00  0.00000000E+00
  2.00000000E+00  1.00000000E+00  1.00000000E+00  1.00000000E+00  0.00000000E+00
  0.00000000E+00  1.00000000E+00  0.00000000E+00  0.00000000E+00  2.00000000E+00
  1.50000000E+00  1.00000000E+00  1.00000000E+00  0.00000000E+00  0.00000000E+00
Shell types                                I   N=          30
           0          -1           0          -1           0          -1
           0          -1           0          -1           0           0
           0           0          -1           0          -1           0
           0           0           0          -1           0           0
          -1           0           0           0          -1           0
Number of primitives per shell             I   N=          30
           3           3           3           3           3           3
           3           3           3           3           3           3
           3           3           3           3           3           3
           3           3           3           3           3           3
           3           3           3           3           3           3
Shell to atom map                          I   N=          30
           1           1           2           2           3           3
           4           4           5           5           6           7
           8           9           9          10          10          11
          12          13          14          14          15          16
          16          17          18          19          19          20
Primitive exponents                        R   N=          90
  7.16168373E+01  1.30450963E+01  3.53051216E+00  2.94124936E+00  6.83483096E-01
  2.22289916E-01  7.16168373E+01  1.30450963E+01  3.53051216E+00  2.94124936E+00
  6.83483096E-01  2.22289916E-01  7.16168373E+01  1.30450963E+01  3.53051216E+00
  2.94124936E+00  6.83483096E-01  2.22289916E-01  7.16168373E+01  1.30450963E+01
  3.53051216E+00  2.94124936E+00  6.83483096E-01  2.22289916E-01  7.16168373E+01
  1.30450963E+01  3.53051216E+00  2.94124936E+00  6.83483096E-01  2.22289916E-01
  3.42525091E+00  6.23913730E-01  1.68855404E-01  3.42525091E+00  6.23913730E-01
  1.68855404E-01  3.42525091E+00  6.23913730E-01  1.68855404E-01  7.16168373E+01
  1.30450963E+01  3.53051216E+00  2.94124936E+00  6.83483096E-01  2.22289916E-01
  7.16168373E+01  1.30450963E+01  3.53051216E+00  2.94124936E+00  6.83483096E-01
  2.22289916E-01  3.42525091E+00  6.23913730E-01  1.68855404E-01  3.42525091E+00
  6.23913730E-01  1.68855404E-01  3.42525091E+00  6.23913730E-01  1.68855404E-01
  7.16168373E+01  1.30450963E+01  3.53051216E+00  2.94124936E+00  6.83483096E-01
  2.22289916E-01  3.42525091E+00  6.23913730E-01  1.68855404E-01  7.16168373E+01
  1.30450963E+01  3.53051216E+00  2.94124936E+00  6.83483096E-01  2.22289916E-01
  3.42525091E+00  6.23913730E-01  1.68855404E-01  3.42525091E+00  6.23913730E-01
  1.68855404E-01  7.16168373E+01  1.30450963E+01  3.53051216E+00  2.94124936E+00
  6.83483096E-01  2.22289916E-01  3.42525091E+00  6.23913730E-01  1.68855404E-01
Contraction coefficients                   R   N=          90
  1.54328967E-01  5.35328142E-01  4.44634542E-01 -9.99672292E-02  3.99512826E-01
  7.00115469E-01  1.54328967E-01  5.35328142E-01  4.44634542E-01 -9.99672292E-02
  3.99512826E-01  7.00115469E-01  1.54328967E-01  5.35328142E-01  4.44634542E-01
 -9.99672292E-02  3.99512826E-01  7.00115469E-01  1.54328967E-01  5.35328142E-01
  4.44634542E-01 -9.99672292E-02  3.99512826E-01  7.00115469E-01  1.54328967E-01
  5.35328142E-01  4.44634542E-01 -9.99672292E-02  3.99512826E-01  7.00115469E-01
  1.54328967E-01  5.35328142E-01  4.44634542E-01  1.54328967E-01  5.35328142E-01
  4.44634542E-01  1.54328967E-01  5.35328142E-01  4.44634542E-01  1.54328967E-01
  5.35328142E-01  4.44634542E-01 -9.99672292E-02  3.99512826E-01  7.00115469E-01
  1.54328967E-01  5.35328142E-01  4.44634542E-01 -9.99672292E-02  3.99512826E-01
  7.00115469E-01  1.54328967E-01  5.35328142E-01  4.44634542E-01  1.54328967E-01
  5.35328142E-01  4.44634542E-01  1.54328967E-01  5.35328142E-01  4.44634542E-01
  1.54328967E-01  5.35328142E-01  4.44634542E-01 -9.99672292E-02  3.99512826E-01
  7.00115469E-01  1.54328967E-01  5.35328142E-01  4.44634542E-01  1.54328967E-01
  5.35328142E-01  4.44634542E-01 -9.99672292E-02  3.99512826E-01  7.00115469E-01
  1.54328967E-01  5.35328142E-01  4.44634542E-01  1.54328967E-01  5.35328142E-01
  4.44634542E-01  1.54328967E-01  5.35328142E-01  4.44634542E-01 -9.99672292E-02
  3.99512826E-01  7.00115469E-01  1.54328967E-01  5.35328142E-01  4.44634542E-01
P(S=P) Contraction coefficients            R   N=          90
  0.00000000E+00  0.00000000E+00  0.00000000E+00  1.55916275E-01  6.07683719E-01
  3.91957393E-01  0.00000000E+00  0.00000000E+00  0.00000000E+00  1.55916275E-01
  6.07683719E-01  3.91957393E-01  0.00000000E+00  0.00000000E+00  0.00000000E+00
  1.55916275E-01  6.07683719E-01  3.91957393E-01  0.00000000E+00  0.00000000E+00
  0.00000000E+00  1.55916275E-01  6.07683719E-01  3.91957393E-01  0.00000000E+00
  0.00000000E+00  0.00000000E+00  1.55916275E-01  6.07683719E-01  3.91957393E-01
  0.00000000E+00  0.00000000E+00  0.00000000E+00  0.00000000E+00  0.00000000E+00
  0.00000000E+00  0.00000000E+00  0.00000000E+00  0.00000000E+00  0.00000000E+00
  0.00000000E+00  0.00000000E+00  1.55916275E-01  6.07683719E-01  3.91957393E-01
  0.00000000E+00  0.00000000E+00  0.00000000E+00  1.55916275E-01  6.07683719E-01
  3.91957393E-01  0.00000000E+00  0.00000000E+00  0.00000000E+00  0.00000000E+00
  0.00000000E+00  0.00000000E+00  0.00000000E+00  0.00000000E+00  0.00000000E+00
  0.00000000E+00  0.00000000E+00  0.00000000E+00  1.55916275E-01  6.07683719E-01
  3.91957393E-01  0.00000000E+00  0.00000000E+00  0.00000000E+00  0.00000000E+00
  0.00000000E+00  0.00000000E+00  1.55916275E-01  6.07683719E-01  3.91957393E-01
  0.00000000E+00  0.00000000E+00  0.00000000E+00  0.00000000E+00  0.00000000E+00
  0.00000000E+00  0.00000000E+00  0.00000000E+00  0.00000000E+00  1.55916275E-01
  6.07683719E-01  3.91957393E-01  0.00000000E+00  0.00000000E+00  0.00000000E+00
Coordinates of each shell                  R   N=          90
 -4.44241025E-01  2.62480593E+00  2.46519033E-31 -4.44241025E-01  2.62480593E+00
  2.46519033E-31  2.05025281E+00  1.67388527E+00  4.93038066E-31  2.05025281E+00
  1.67388527E+00  4.93038066E-31  2.49451269E+00 -9.35270714E-01  9.86076132E-32
  2.49451269E+00 -9.35270714E-01  9.86076132E-32  4.44241025E-01 -2.62480593E+00
  2.95822839E-31  4.44241025E-01 -2.62480593E+00  2.95822839E-31 -2.05025281E+00
 -1.67388527E+00  2.46519033E-31 -2.05025281E+00 -1.67388527E+00  2.46519033E-31
  3.64444794E+00  2.99582215E+00  0.00000000E+00  4.43979729E+00 -1.65334931E+00
 -1.97215226E-31 -3.64444794E+00 -2.99582215E+00  1.97215226E-31  9.23819808E-01
 -5.40877276E+00 -6.90253292E-31  9.23819808E-01 -5.40877276E+00 -6.90253292E-31
 -9.23819808E-01 -7.15409385E+00 -7.39557099E-31 -9.23819808E-01 -7.15409385E+00
 -7.39557099E-31 -2.90207583E+00 -6.52211257E+00 -9.36772325E-31  2.92520797E+00
 -5.96581006E+00 -3.94430453E-31 -5.38634183E-01 -9.16752023E+00 -2.56379794E-30
 -9.23819808E-01  5.40877276E+00 -9.86076132E-32 -9.23819808E-01  5.40877276E+00
 -9.86076132E-32 -2.92520797E+00  5.96581006E+00  3.94430453E-31  9.23819808E-01
  7.15409385E+00  4.93038066E-32  9.23819808E-01  7.15409385E+00  4.93038066E-32
  2.90207583E+00  6.52211257E+00 -4.19082356E-31  5.38634183E-01  9.16752023E+00
 -4.93038066E-31 -2.49451269E+00  9.35270714E-01 -1.97215226E-31 -2.49451269E+00
  9.35270714E-01 -1.97215226E-31 -4.43979729E+00  1.65334931E+00  0.00000000E+00
Alpha Orbital Energies                     R   N=          60
 -1.00189404E+01 -1.00188811E+01 -1.00069957E+01 -1.00069627E+01 -1.00061052E+01
 -1.00061041E+01 -1.00056707E+01 -1.00055651E+01 -9.99032107E+00 -9.99032099E+00
 -8.14627394E-01 -7.57461219E-01 -7.18208288E-01 -7.03046867E-01 -6.65652123E-01
 -5.89945910E-01 -5.61341643E-01 -5.32438091E-01 -5.10312379E-01 -4.60287107E-01
 -4.42006067E-01 -4.13055696E-01 -3.98895224E-01 -3.96257035E-01 -3.75795420E-01
 -3.50903513E-01 -3.48009326E-01 -3.28297482E-01 -3.11244855E-01 -2.94129530E-01
 -2.88034394E-01 -2.64960386E-01 -2.11363560E-01 -1.96526266E-01 -1.52932369E-01
  4.05641340E-02  8.94711323E-02  1.11201605E-01  1.83894519E-01  2.76905952E-01
  3.38284248E-01  3.38851113E-01  3.78906360E-01  3.84963036E-01  4.08650446E-01
  4.10334430E-01  4.26061294E-01  4.47625235E-01  4.72450918E-01  4.93052489E-01
  5.29898789E-01  5.60684986E-01  5.85578915E-01  6.04067957E-01  6.26266698E-01
  6.59162079E-01  6.75106153E-01  7.26179527E-01  7.90935059E-01  8.07441950E-01
Alpha MO coefficients                      R   N=        3600
  6.99290387E-01  3.19180722E-02  4.76287819E-05 -9.37941794E-04  0.00000000E+00
 -1.87517077E-02 -7.85981148E-03  4.18934189E-03 -1.26369074E-03  0.00000000E+00
  2.01017010E-02  8.01012907E-03 -3.62401306E-03 -2.57161766E-03  0.00000000E+00
 -6.99290387E-01 -3.19180722E-02  4.76287819E-05 -9.37941794E-04  0.00000000E+00
  1.87517077E-02  7.85981148E-03  4.18934189E-03 -1.26369074E-03  0.00000000E+00
  3.59143141E-04 -3.53574522E-04 -3.59143141E-04  2.57838169E-02  6.71375578E-03
 -7.79806509E-04  4.02167369E-03  0.00000000E+00 -3.11325954E-05 -4.77918330E-04
 -3.40039510E-05 -2.65510770E-04  0.00000000E+00  1.61850782E-04 -3.18756014E-04
  3.40047256E-05 -2.57838169E-02 -6.71375578E-03 -7.79806509E-04  4.02167369E-03
  0.00000000E+00  3.18756014E-04  3.11325954E-05  4.77918330E-04 -3.40039510E-05
 -2.65510770E-04  0.00000000E+00 -1.61850782E-04 -3.40047256E-05 -2.01017010E-02
 -8.01012907E-03 -3.62401306E-03 -2.57161766E-03  0.00000000E+00  3.53574522E-04
  6.99265711E-01  3.16993112E-02  3.27477288E-06 -6.05879051E-04  0.00000000E+00
 -1.97186626E-02 -6.99627636E-03  4.17772421E-03 -1.69527904E-03  0.00000000E+00
 -2.08348519E-02 -7.15756825E-03  3.42787986E-03  2.95187993E-03  0.00000000E+00
  6.99265711E-01  3.16993112E-02 -3.27477288E-06  6.05879051E-04  0.00000000E+00
 -1.97186626E-02 -6.99627636E-03 -4.17772421E-03  1.69527904E-03  0.00000000E+00
  2.25363627E-04  2.32022315E-04  2.25363627E-04 -2.62126646E-02 -6.80018434E-03
  7.89257106E-04 -4.07095016E-03  0.00000000E+00  4.17195694E-05  4.80798154E-04
  3.67243638E-05  2.73384837E-04  0.00000000E+00 -1.48047793E-04  3.30541878E-04
 -3.28290189E-05 -2.62126646E-02 -6.80018434E-03 -7.89257106E-04  4.07095016E-03
  0.00000000E+00  3.30541878E-04  4.17195694E-05  4.80798154E-04 -3.67243638E-05
 -2.73384837E-04  0.00000000E+00 -1.48047793E-04 -3.28290189E-05 -2.08348519E-02
 -7.15756825E-03 -3.42787986E-03 -2.95187993E-03  0.00000000E+00  2.32022315E-04
 -2.46419799E-02  7.09141324E-03 -2.20854488E-03 -3.33894660E-03  0.00000000E+00
 -1.71212441E-01 -1.41246979E-02 -4.90725037E-04  4.51984775E-03  0.00000000E+00
  6.78321237E-01  3.18614421E-02 -1.22640650E-03  1.61300572E-03  0.00000000E+00
  2.46419799E-02 -7.09141324E-03 -2.20854488E-03 -3.33894660E-03  0.00000000E+00
  1.71212441E-01  1.41246979E-02 -4.90725037E-04  4.51984775E-03  0.00000000E+00
  1.73211228E-03 -6.15882338E-03 -1.73211228E-03 -1.72335569E-02 -6.29450017E-04
 -6.25893908E-06 -1.48140413E-05  0.00000000E+00 -3.02048518E-04  7.92957901E-05
  8.22511012E-05  1.09955047E-05  0.00000000E+00  7.56743015E-05  9.24313580E-05
 -1.16494356E-05  1.72335569E-02  6.29450017E-04 -6.25893908E-06 -1.48140413E-05
  0.00000000E+00 -9.24313580E-05  3.02048518E-04 -7.92957901E-05  8.22511012E-05
  1.09955047E-05  0.00000000E+00 -7.56743015E-05  1.16494356E-05 -6.78321237E-01
 -3.18614421E-02 -1.22640650E-03  1.61300572E-03  0.00000000E+00  6.15882338E-03
  1.43306884E-02 -3.55201577E-03  4.44505609E-03  2.36952113E-03  0.00000000E+00
 -1.96508891E-01 -1.50453768E-02 -4.47522116E-04  4.35905608E-03  0.00000000E+00
  6.71603000E-01  3.15977506E-02 -9.68745512E-04  1.63707686E-03  0.00000000E+00
  1.43306884E-02 -3.55201577E-03 -4.44505609E-03 -2.36952113E-03  0.00000000E+00
 -1.96508891E-01 -1.50453768E-02  4.47522116E-04 -4.35905608E-03  0.00000000E+00
  1.87720660E-03 -6.15875244E-03  1.87720660E-03 -2.06085440E-02 -9.12857799E-04
  9.71004436E-05 -4.87561242E-05  0.00000000E+00  6.99551044E-05  1.99128680E-04
  7.30144769E-05  5.31330358E-05  0.00000000E+00 -1.08675128E-04  1.42054831E-04
 -1.05057301E-05 -2.06085440E-02 -9.12857799E-04 -9.71004436E-05  4.87561242E-05
  0.00000000E+00  1.42054831E-04  6.99551044E-05  1.99128680E-04 -7.30144769E-05
 -5.31330358E-05  0.00000000E+00 -1.08675128E-04 -1.05057301E-05  6.71603000E-01
  3.15977506E-02  9.68745512E-04 -1.63707686E-03  0.00000000E+00 -6.15875244E-03
  2.55394274E-02 -3.92851754E-03  9.35438731E-04 -4.20389083E-03  0.00000000E+00
 -5.97148230E-02 -2.73523333E-03  2.12822005E-04  1.31163335E-04  0.00000000E+00
  3.36500326E-03  5.82548884E-04  1.15188520E-04  3.53817644E-04  0.00000000E+00
  2.55394274E-02 -3.92851754E-03 -9.35438731E-04  4.20389083E-03  0.00000000E+00
 -5.97148230E-02 -2.73523333E-03 -2.12822005E-04 -1.31163335E-04  0.00000000E+00
  4.03196108E-04 -7.30936068E-05  4.03196108E-04  6.97445476E-01  3.07203089E-02
 -9.63354684E-04 -8.71366013E-04  0.00000000E+00 -8.05730603E-03 -7.58473894E-03
 -3.32739179E-03 -3.15535283E-03  0.00000000E+00  1.67113066E-04 -6.36066459E-03
  2.15718137E-04  6.97445476E-01  3.07203089E-02  9.63354684E-04  8.71366013E-04
  0.00000000E+00 -6.36066459E-03 -8.05730603E-03 -7.58473894E-03  3.32739179E-03
  3.15535283E-03  0.00000000E+00  1.67113066E-04  2.15718137E-04  3.36500326E-03
  5.82548884E-04 -1.15188520E-04 -3.53817644E-04  0.00000000E+00 -7.30936068E-05
 -2.70610673E-02  4.45325339E-03 -7.53476205E-04  4.09482942E-03  0.00000000E+00
  1.40179156E-02  4.22631508E-04 -1.42795454E-04  1.26169985E-04  0.00000000E+00
  2.04187268E-02  7.31604625E-04  8.92731045E-05 -3.20891085E-05  0.00000000E+00
  2.70610673E-02 -4.45325339E-03 -7.53476205E-04  4.09482942E-03  0.00000000E+00
 -1.40179156E-02 -4.22631508E-04 -1.42795454E-04  1.26169985E-04  0.00000000E+00
  2.03212133E-06 -1.98029107E-04 -2.03212133E-06  6.99515640E-01  3.08324879E-02
 -9.75117222E-04 -8.69840805E-04  0.00000000E+00 -8.15982863E-03 -7.62038892E-03
 -3.33407831E-03 -3.17415858E-03  0.00000000E+00  1.83669772E-04 -6.38697718E-03
  2.14747484E-04 -6.99515640E-01 -3.08324879E-02 -9.75117222E-04 -8.69840805E-04
  0.00000000E+00  6.38697718E-03  8.15982863E-03  7.62038892E-03 -3.33407831E-03
 -3.17415858E-03  0.00000000E+00 -1.83669772E-04 -2.14747484E-04 -2.04187268E-02
 -7.31604625E-04  8.92731045E-05 -3.20891085E-05  0.00000000E+00  1.98029107E-04
  1.46717872E-02 -4.38911058E-03 -4.72815646E-03  8.04473660E-04  0.00000000E+00