 Entering Gaussian System, Link 0=g03
 Initial command:
 /home/eric/data/opt/apps/gaussian/g03E.01/g03/l1.exe /tmp/Gau-3991950.inp -scrdir=/tmp/
 Entering Link 1 = /home/eric/data/opt/apps/gaussian/g03E.01/g03/l1.exe PID=   3991951.
  
 Copyright (c) 1988,1990,1992,1993,1995,1998,2003,2004,2007, Gaussian, Inc.
                  All Rights Reserved.
  
 This is the Gaussian(R) 03 program.  It is based on the
 the Gaussian(R) 98 system (copyright 1998, Gaussian, Inc.),
 the Gaussian(R) 94 system (copyright 1995, Gaussian, Inc.),
 the Gaussian 92(TM) system (copyright 1992, Gaussian, Inc.),
 the Gaussian 90(TM) system (copyright 1990, Gaussian, Inc.),
 the Gaussian 88(TM) system (copyright 1988, Gaussian, Inc.),
 the Gaussian 86(TM) system (copyright 1986, Carnegie Mellon
 University), and the Gaussian 82(TM) system (copyright 1983,
 Carnegie Mellon University). Gaussian is a federally registered
 trademark of Gaussian, Inc.
  
 This software contains proprietary and confidential information,
 including trade secrets, belonging to Gaussian, Inc.
  
 This software is provided under written license and may be
 used, copied, transmitted, or stored only in accord with that
 written license.
  
 The following legend is applicable only to US Government
 contracts under FAR:
  
                    RESTRICTED RIGHTS LEGEND
  
 Use, reproduction and disclosure by the US Government is
 subject to restrictions as set forth in subparagraphs (a)
 and (c) of the Commercial Computer Software - Restricted
 Rights clause in FAR 52.227-19.
  
 Gaussian, Inc.
 340 Quinnipiac St., Bldg. 40, Wallingford CT 06492
  
  
 ---------------------------------------------------------------
 Warning -- This program may not be used in any manner that
 competes with the business of Gaussian, Inc. or will provide
 assistance to any competitor of Gaussian, Inc.  The licensee
 of this program is prohibited from giving any competitor of
 Gaussian, Inc. access to this program.  By using this program,
 the user acknowledges that Gaussian, Inc. is engaged in the
 business of creating and licensing software in the field of
 computational chemistry and represents and warrants to the
 licensee that it is not a competitor of Gaussian, Inc. and that
 it will not use this program in any manner prohibited above.
 ---------------------------------------------------------------
  

 Cite this work as:
 Gaussian 03, Revision E.01,
 M. J. Frisch, G. W. Trucks, H. B. Schlegel, G. E. Scuseria, 
 M. A. Robb, J. R. Cheeseman, J. A. Montgomery, Jr., T. Vreven, 
 K. N. Kudin, J. C. Burant, J. M. Millam, S. S. Iyengar, J. Tomasi, 
 V. Barone, B. Mennucci, M. Cossi, G. Scalmani, N. Rega, 
 G. A. Petersson, H. Nakatsuji, M. Hada, M. Ehara, K. Toyota, 
 R. Fukuda, J. Hasegawa, M. Ishida, T. Nakajima, Y. Honda, O. Kitao, 
 H. Nakai, M. Klene, X. Li, J. E. Knox, H. P. Hratchian, J. B. Cross, 
 V. Bakken, C. Adamo, J. Jaramillo, R. Gomperts, R. E. Stratmann, 
 O. Yazyev, A. J. Austin, R. Cammi, C. Pomelli, J. W. Ochterski, 
 P. Y. Ayala, K. Morokuma, G. A. Voth, P. Salvador, J. J. Dannenberg, 
 V. G. Zakrzewski, S. Dapprich, A. D. Daniels, M. C. Strain, 
 O. Farkas, D. K. Malick, A. D. Rabuck, K. Raghavachari, 
 J. B. Foresman, J. V. Ortiz, Q. Cui, A. G. Baboul, S. Clifford, 
 J. Cioslowski, B. B. Stefanov, G. Liu, A. Liashenko, P. Piskorz, 
 I. Komaromi, R. L. Martin, D. J. Fox, T. Keith, M. A. Al-Laham, 
 C. Y. Peng, A. Nanayakkara, M. Challacombe, P. M. W. Gill, 
 B. Johnson, W. Chen, M. W. Wong, C. Gonzalez, and J. A. Pople, 
 Gaussian, Inc., Wallingford CT, 2004.
 
 ******************************************
 Gaussian 03:  AM64L-G03RevE.01 11-Sep-2007
                 7-Apr-2024 
 ******************************************
 %chk=dvb_gopt_unconverged.chk
 ------------------------------------------
 #p b3lyp/sto-3g opt(maxcycles=5,maxstep=1)
 ------------------------------------------
 1/6=5,8=1,14=-1,18=20,26=3,38=1/1,3;
 2/9=110,17=6,18=5,40=1/2;
 3/6=3,11=2,16=1,25=1,30=1,74=-5/1,2,3;
 4//1;
 5/5=2,38=5/2;
 6/7=2,8=2,9=2,10=2,28=1/1;
 7//1,2,3,16;
 1/6=5,8=1,14=-1,18=20/3(3);
 2/9=110/2;
 6/7=2,8=2,9=2,10=2,19=2,28=1/1;
 99//99;
 2/9=110/2;
 3/6=3,11=2,16=1,25=1,30=1,74=-5/1,2,3;
 4/5=5,16=3/1;
 5/5=2,38=5/2;
 7//1,2,3,16;
 1/6=5,8=1,14=-1,18=20/3(-5);
 2/9=110/2;
 6/7=2,8=2,9=2,10=2,19=2,28=1/1;
 99/9=1/99;
 Leave Link    1 at Sun Apr  7 14:58:43 2024, MaxMem=          0 cpu:       0.0
 (Enter /home/eric/data/opt/apps/gaussian/g03E.01/g03/l101.exe)
 ---------------------------------
 dvb not allowed to optimize fully
 ---------------------------------
 Symbolic Z-matrix:
 Charge =  0 Multiplicity = 1
 C
 C                    1    B1
 C                    2    B2       1    A1
 C                    3    B3       2    A2       1    D1       0
 C                    4    B4       3    A3       2    D2       0
 H                    2    B5       1    A4       5    D3       0
 H                    3    B6       2    A5       1    D4       0
 H                    5    B7       4    A6       3    D5       0
 C                    4    B8       3    A7       2    D6       0
 C                    9    B9       4    A8       3    D7       0
 H                    10   B10      9    A9       4    D8       0
 H                    9    B11      4    A10      3    D9       0
 H                    10   B12      9    A11      4    D10      0
 C                    1    B13      2    A12      3    D11      0
 H                    14   B14      1    A13      2    D12      0
 C                    14   B15      1    A14      2    D13      0
 H                    16   B16      14   A15      1    D14      0
 H                    16   B17      14   A16      1    D15      0
 C                    5    B18      4    A17      3    D16      0
 H                    19   B19      5    A18      4    D17      0
       Variables:
  B1                    1.39156                  
  B2                    1.3892                   
  B3                    1.36618                  
  B4                    1.39156                  
  B5                    1.09492                  
  B6                    1.09599                  
  B7                    1.09492                  
  B8                    1.48585                  
  B9                    1.34293                  
  B10                   1.10355                  
  B11                   1.0983                   
  B12                   1.07                     
  B13                   1.48585                  
  B14                   1.0983                   
  B15                   1.34293                  
  B16                   1.10355                  
  B17                   1.07                     
  B18                   1.3892                   
  B19                   1.09599                  
  A1                  120.26062                  
  A2                  119.60308                  
  A3                  120.13631                  
  A4                  119.89927                  
  A5                  119.94428                  
  A6                  119.89927                  
  A7                  119.97332                  
  A8                  123.60169                  
  A9                  119.56877                  
  A10                 115.51295                  
  A11                 122.34164                  
  A12                 119.89037                  
  A13                 115.51295                  
  A14                 123.60169                  
  A15                 119.56877                  
  A16                 122.34164                  
  A17                 120.26062                  
  A18                 119.94428                  
  D1                    0.                       
  D2                    0.                       
  D3                  180.                       
  D4                  180.                       
  D5                  180.                       
  D6                  180.                       
  D7                  180.                       
  D8                    0.                       
  D9                    0.                       
  D10                 180.                       
  D11                 180.                       
  D12                 180.                       
  D13                   0.                       
  D14                   0.                       
  D15                 180.                       
  D16                   0.                       
  D17                 180.                       
 
                    Isotopes and Nuclear Properties:
 (Nuclear quadrupole moments (NQMom) in fm**2, nuclear magnetic moments (NMagM)
  in nuclear magnetons)

  Atom         1           2           3           4           5           6           7           8           9          10
 IAtWgt=          12          12          12          12          12           1           1           1          12          12
 AtmWgt=  12.0000000  12.0000000  12.0000000  12.0000000  12.0000000   1.0078250   1.0078250   1.0078250  12.0000000  12.0000000
 NucSpn=           0           0           0           0           0           1           1           1           0           0
 AtZEff=   0.0000000   0.0000000   0.0000000   0.0000000   0.0000000   0.0000000   0.0000000   0.0000000   0.0000000   0.0000000
 NQMom=    0.0000000   0.0000000   0.0000000   0.0000000   0.0000000   0.0000000   0.0000000   0.0000000   0.0000000   0.0000000
 NMagM=    0.0000000   0.0000000   0.0000000   0.0000000   0.0000000   2.7928460   2.7928460   2.7928460   0.0000000   0.0000000

  Atom        11          12          13          14          15          16          17          18          19          20
 IAtWgt=           1           1           1          12           1          12           1           1          12           1
 AtmWgt=   1.0078250   1.0078250   1.0078250  12.0000000   1.0078250  12.0000000   1.0078250   1.0078250  12.0000000   1.0078250
 NucSpn=           1           1           1           0           1           0           1           1           0           1
 AtZEff=   0.0000000   0.0000000   0.0000000   0.0000000   0.0000000   0.0000000   0.0000000   0.0000000   0.0000000   0.0000000
 NQMom=    0.0000000   0.0000000   0.0000000   0.0000000   0.0000000   0.0000000   0.0000000   0.0000000   0.0000000   0.0000000
 NMagM=    2.7928460   2.7928460   2.7928460   0.0000000   2.7928460   0.0000000   2.7928460   2.7928460   0.0000000   2.7928460
 Leave Link  101 at Sun Apr  7 14:58:43 2024, MaxMem=    6291456 cpu:       0.0
 (Enter /home/eric/data/opt/apps/gaussian/g03E.01/g03/l103.exe)

 GradGradGradGradGradGradGradGradGradGradGradGradGradGradGradGradGradGrad
 Berny optimization.
 Initialization pass.
                           ----------------------------
                           !    Initial Parameters    !
                           ! (Angstroms and Degrees)  !
 --------------------------                            --------------------------
 ! Name  Definition              Value          Derivative Info.                !
 --------------------------------------------------------------------------------
 ! R1    R(1,2)                  1.3916         estimate D2E/DX2                !
 ! R2    R(1,14)                 1.4858         estimate D2E/DX2                !
 ! R3    R(1,19)                 1.3662         estimate D2E/DX2                !
 ! R4    R(2,3)                  1.3892         estimate D2E/DX2                !
 ! R5    R(2,6)                  1.0949         estimate D2E/DX2                !
 ! R6    R(3,4)                  1.3662         estimate D2E/DX2                !
 ! R7    R(3,7)                  1.096          estimate D2E/DX2                !
 ! R8    R(4,5)                  1.3916         estimate D2E/DX2                !
 ! R9    R(4,9)                  1.4859         estimate D2E/DX2                !
 ! R10   R(5,8)                  1.0949         estimate D2E/DX2                !
 ! R11   R(5,19)                 1.3892         estimate D2E/DX2                !
 ! R12   R(9,10)                 1.3429         estimate D2E/DX2                !
 ! R13   R(9,12)                 1.0983         estimate D2E/DX2                !
 ! R14   R(10,11)                1.1036         estimate D2E/DX2                !
 ! R15   R(10,13)                1.07           estimate D2E/DX2                !
 ! R16   R(14,15)                1.0983         estimate D2E/DX2                !
 ! R17   R(14,16)                1.3429         estimate D2E/DX2                !
 ! R18   R(16,17)                1.1036         estimate D2E/DX2                !
 ! R19   R(16,18)                1.07           estimate D2E/DX2                !
 ! R20   R(19,20)                1.096          estimate D2E/DX2                !
 ! A1    A(2,1,14)             119.8904         estimate D2E/DX2                !
 ! A2    A(2,1,19)             120.1363         estimate D2E/DX2                !
 ! A3    A(14,1,19)            119.9733         estimate D2E/DX2                !
 ! A4    A(1,2,3)              120.2606         estimate D2E/DX2                !
 ! A5    A(1,2,6)              119.8993         estimate D2E/DX2                !
 ! A6    A(3,2,6)              119.8401         estimate D2E/DX2                !
 ! A7    A(2,3,4)              119.6031         estimate D2E/DX2                !
 ! A8    A(2,3,7)              119.9443         estimate D2E/DX2                !
 ! A9    A(4,3,7)              120.4526         estimate D2E/DX2                !
 ! A10   A(3,4,5)              120.1363         estimate D2E/DX2                !
 ! A11   A(3,4,9)              119.9733         estimate D2E/DX2                !
 ! A12   A(5,4,9)              119.8904         estimate D2E/DX2                !
 ! A13   A(4,5,8)              119.8993         estimate D2E/DX2                !
 ! A14   A(4,5,19)             120.2606         estimate D2E/DX2                !
 ! A15   A(8,5,19)             119.8401         estimate D2E/DX2                !
 ! A16   A(4,9,10)             123.6017         estimate D2E/DX2                !
 ! A17   A(4,9,12)             115.5129         estimate D2E/DX2                !
 ! A18   A(10,9,12)            120.8854         estimate D2E/DX2                !
 ! A19   A(9,10,11)            119.5688         estimate D2E/DX2                !
 ! A20   A(9,10,13)            122.3416         estimate D2E/DX2                !
 ! A21   A(11,10,13)           118.0896         estimate D2E/DX2                !
 ! A22   A(1,14,15)            115.513          estimate D2E/DX2                !
 ! A23   A(1,14,16)            123.6017         estimate D2E/DX2                !
 ! A24   A(15,14,16)           120.8854         estimate D2E/DX2                !
 ! A25   A(14,16,17)           119.5688         estimate D2E/DX2                !
 ! A26   A(14,16,18)           122.3416         estimate D2E/DX2                !
 ! A27   A(17,16,18)           118.0896         estimate D2E/DX2                !
 ! A28   A(1,19,5)             119.6031         estimate D2E/DX2                !
 ! A29   A(1,19,20)            120.4526         estimate D2E/DX2                !
 ! A30   A(5,19,20)            119.9443         estimate D2E/DX2                !
 ! D1    D(14,1,2,3)           180.0            estimate D2E/DX2                !
 ! D2    D(14,1,2,6)             0.0            estimate D2E/DX2                !
 ! D3    D(19,1,2,3)             0.0            estimate D2E/DX2                !
 ! D4    D(19,1,2,6)           180.0            estimate D2E/DX2                !
 ! D5    D(2,1,14,15)          180.0            estimate D2E/DX2                !
 ! D6    D(2,1,14,16)            0.0            estimate D2E/DX2                !
 ! D7    D(19,1,14,15)           0.0            estimate D2E/DX2                !
 ! D8    D(19,1,14,16)         180.0            estimate D2E/DX2                !
 ! D9    D(2,1,19,5)             0.0            estimate D2E/DX2                !
 ! D10   D(2,1,19,20)          180.0            estimate D2E/DX2                !
 ! D11   D(14,1,19,5)          180.0            estimate D2E/DX2                !
 ! D12   D(14,1,19,20)           0.0            estimate D2E/DX2                !
 ! D13   D(1,2,3,4)              0.0            estimate D2E/DX2                !
 ! D14   D(1,2,3,7)            180.0            estimate D2E/DX2                !
 ! D15   D(6,2,3,4)            180.0            estimate D2E/DX2                !
 ! D16   D(6,2,3,7)              0.0            estimate D2E/DX2                !
 ! D17   D(2,3,4,5)              0.0            estimate D2E/DX2                !
 ! D18   D(2,3,4,9)            180.0            estimate D2E/DX2                !
 ! D19   D(7,3,4,5)            180.0            estimate D2E/DX2                !
 ! D20   D(7,3,4,9)              0.0            estimate D2E/DX2                !
 ! D21   D(3,4,5,8)            180.0            estimate D2E/DX2                !
 ! D22   D(3,4,5,19)             0.0            estimate D2E/DX2                !
 ! D23   D(9,4,5,8)              0.0            estimate D2E/DX2                !
 ! D24   D(9,4,5,19)           180.0            estimate D2E/DX2                !
 ! D25   D(3,4,9,10)           180.0            estimate D2E/DX2                !
 ! D26   D(3,4,9,12)             0.0            estimate D2E/DX2                !
 ! D27   D(5,4,9,10)             0.0            estimate D2E/DX2                !
 ! D28   D(5,4,9,12)           180.0            estimate D2E/DX2                !
 ! D29   D(4,5,19,1)             0.0            estimate D2E/DX2                !
 ! D30   D(4,5,19,20)          180.0            estimate D2E/DX2                !
 ! D31   D(8,5,19,1)           180.0            estimate D2E/DX2                !
 ! D32   D(8,5,19,20)            0.0            estimate D2E/DX2                !
 ! D33   D(4,9,10,11)            0.0            estimate D2E/DX2                !
 ! D34   D(4,9,10,13)          180.0            estimate D2E/DX2                !
 ! D35   D(12,9,10,11)         180.0            estimate D2E/DX2                !
 ! D36   D(12,9,10,13)           0.0            estimate D2E/DX2                !
 ! D37   D(1,14,16,17)           0.0            estimate D2E/DX2                !
 ! D38   D(1,14,16,18)         180.0            estimate D2E/DX2                !
 ! D39   D(15,14,16,17)        180.0            estimate D2E/DX2                !
 ! D40   D(15,14,16,18)          0.0            estimate D2E/DX2                !
 --------------------------------------------------------------------------------
 Trust Radius=1.00D-02 FncErr=1.00D-07 GrdErr=1.00D-06
 Number of steps in this run=   5 maximum allowed number of steps= 120.
 GradGradGradGradGradGradGradGradGradGradGradGradGradGradGradGradGradGrad

 Leave Link  103 at Sun Apr  7 14:58:43 2024, MaxMem=    6291456 cpu:       0.0
 (Enter /home/eric/data/opt/apps/gaussian/g03E.01/g03/l202.exe)
                          Input orientation:                          
 ---------------------------------------------------------------------
 Center     Atomic     Atomic              Coordinates (Angstroms)
 Number     Number      Type              X           Y           Z
 ---------------------------------------------------------------------
    1          6             0        0.000000    0.000000    0.000000
    2          6             0        0.000000    0.000000    1.391560
    3          6             0        1.199911    0.000000    2.091625
    4          6             0        2.381429    0.000000    1.405723
    5          6             0        2.381429    0.000000    0.014163
    6          1             0       -0.949190    0.000000    1.937352
    7          1             0        1.193859    0.000000    3.187599
    8          1             0        3.330619    0.000000   -0.531629
    9          6             0        3.669632    0.000000    2.146184
   10          6             0        4.871383    0.000000    1.546806
   11          1             0        4.930308    0.000000    0.444830
   12          1             0        3.585803    0.000000    3.241280
   13          1             0        5.787102    0.000000    2.100302
   14          6             0       -1.288203    0.000000   -0.740462
   15          1             0       -1.204374    0.000000   -1.835558
   16          6             0       -2.489954    0.000000   -0.141083
   17          1             0       -2.548879    0.000000    0.960893
   18          1             0       -3.405673    0.000000   -0.694579
   19          6             0        1.181519    0.000000   -0.685903
   20          1             0        1.187570    0.000000   -1.781876
 ---------------------------------------------------------------------
                    Distance matrix (angstroms):
                    1          2          3          4          5
     1  C    0.000000
     2  C    1.391560   0.000000
     3  C    2.411365   1.389200   0.000000
     4  C    2.765368   2.381471   1.366180   0.000000
     5  C    2.381471   2.751078   2.389945   1.391560   0.000000
     6  H    2.157381   1.094920   2.154630   3.372781   3.845995
     7  H    3.403834   2.156630   1.095990   2.141355   3.388365
     8  H    3.372781   3.845995   3.379553   2.157381   1.094920
     9  C    4.251153   3.746419   2.470324   1.485850   2.490980
    10  C    5.111064   4.873856   3.711676   2.493948   2.923844
    11  H    4.950335   5.020382   4.077720   2.723986   2.585007
    12  H    4.833620   4.034780   2.648431   2.195402   3.444533
    13  H    6.156445   5.830340   4.587200   3.475781   3.993819
    14  C    1.485850   2.490980   3.769804   4.251153   3.746419
    15  H    2.195402   3.444533   4.604710   4.833620   4.034780
    16  C    2.493948   2.923844   4.312782   5.111064   4.873856
    17  H    2.723986   2.585007   3.915607   4.950335   5.020383
    18  H    3.475781   3.993819   5.382782   6.156445   5.830340
    19  C    1.366180   2.389945   2.777589   2.411365   1.389200
    20  H    2.141356   3.388365   3.873521   3.403834   2.156630
                    6          7          8          9         10
     6  H    0.000000
     7  H    2.481083   0.000000
     8  H    4.940914   4.289335   0.000000
     9  C    4.623540   2.685888   2.699188   0.000000
    10  C    5.833660   4.026957   2.587247   1.342930   0.000000
    11  H    6.065980   4.635065   1.874161   2.117525   1.103550
    12  H    4.718727   2.392545   3.781530   1.098300   2.126961
    13  H    6.738262   4.720179   3.600191   2.117967   1.070000
    14  C    2.699188   4.646535   4.623540   5.736972   6.570547
    15  H    3.781530   5.566293   4.718727   6.293664   6.953791
    16  C    2.587247   4.964937   5.833661   6.570547   7.552367
    17  H    1.874161   4.355033   6.065981   6.330466   7.443359
    18  H    3.600191   6.018887   6.738262   7.624295   8.575166
    19  C    3.379554   3.873521   2.154630   3.769804   4.312782
    20  H    4.289336   4.969479   2.481083   4.646535   4.964937
                   11         12         13         14         15
    11  H    0.000000
    12  H    3.102875   0.000000
    13  H    1.864051   2.479425   0.000000
    14  C    6.330466   6.293663   7.624295   0.000000
    15  H    6.544807   6.979977   8.023200   1.098300   0.000000
    16  C    7.443359   6.953790   8.575166   1.342930   2.126961
    17  H    7.496971   6.544806   8.413491   2.117525   3.102875
    18  H    8.413492   8.023199   9.608251   2.117967   2.479425
    19  C    3.915607   4.604710   5.382782   2.470324   2.648432
    20  H    4.355033   5.566293   6.018887   2.685888   2.392546
                   16         17         18         19         20
    16  C    0.000000
    17  H    1.103550   0.000000
    18  H    1.070000   1.864051   0.000000
    19  C    3.711676   4.077721   4.587200   0.000000
    20  H    4.026958   4.635066   4.720180   1.095990   0.000000
 Stoichiometry    C10H10
 Framework group  C2H[SGH(C10H10)]
 Deg. of freedom    19
 Full point group                 C2H
 Largest Abelian subgroup         C2H     NOp   4
 Largest concise Abelian subgroup C2      NOp   2
                         Standard orientation:                         
 ---------------------------------------------------------------------
 Center     Atomic     Atomic              Coordinates (Angstroms)
 Number     Number      Type              X           Y           Z
 ---------------------------------------------------------------------
    1          6             0       -0.244402    1.360912    0.000000
    2          6             0        1.060122    0.876498    0.000000
    3          6             0        1.298701   -0.492062    0.000000
    4          6             0        0.244402   -1.360912    0.000000
    5          6             0       -1.060122   -0.876498    0.000000
    6          1             0        1.902198    1.576324    0.000000
    7          1             0        2.328232   -0.867908    0.000000
    8          1             0       -1.902198   -1.576324    0.000000
    9          6             0        0.490115   -2.826305    0.000000
   10          6             0       -0.490115   -3.744242    0.000000
   11          1             0       -1.543679   -3.415874    0.000000
   12          1             0        1.545899   -3.128932    0.000000
   13          1             0       -0.290007   -4.795364    0.000000
   14          6             0       -0.490115    2.826305    0.000000
   15          1             0       -1.545899    3.128932    0.000000
   16          6             0        0.490115    3.744242    0.000000
   17          1             0        1.543679    3.415874    0.000000
   18          1             0        0.290007    4.795364    0.000000
   19          6             0       -1.298701    0.492062    0.000000
   20          1             0       -2.328232    0.867908    0.000000
 ---------------------------------------------------------------------
 Rotational constants (GHZ):      4.6786751      0.7288286      0.6305963
 Leave Link  202 at Sun Apr  7 14:58:43 2024, MaxMem=    6291456 cpu:       0.0
 (Enter /home/eric/data/opt/apps/gaussian/g03E.01/g03/l301.exe)
 Standard basis: STO-3G (5D, 7F)
 There are    25 symmetry adapted basis functions of AG  symmetry.
 There are     5 symmetry adapted basis functions of BG  symmetry.
 There are     5 symmetry adapted basis functions of AU  symmetry.
 There are    25 symmetry adapted basis functions of BU  symmetry.
 Integral buffers will be    131072 words long.
 Raffenetti 2 integral format.
 Two-electron integral symmetry is turned on.
    60 basis functions,   180 primitive gaussians,    60 cartesian basis functions
    35 alpha electrons       35 beta electrons
       nuclear repulsion energy       455.3069202117 Hartrees.
 IExCor= 402 DFT=T Ex=B+HF Corr=LYP ExCW=0 ScaHFX=  0.200000
 ScaDFX=  0.800000  0.720000  1.000000  0.810000
 IRadAn=      0 IRanWt=     -1 IRanGd=            0 ICorTp=0
 NAtoms=   20 NActive=   20 NUniq=   10 SFac= 3.00D+00 NAtFMM=   80 NAOKFM=F Big=F
 Leave Link  301 at Sun Apr  7 14:58:43 2024, MaxMem=    6291456 cpu:       0.0
 (Enter /home/eric/data/opt/apps/gaussian/g03E.01/g03/l302.exe)
 NPDir=0 NMtPBC=     1 NCelOv=     1 NCel=       1 NClECP=     1 NCelD=      1
         NCelK=      1 NCelE2=     1 NClLst=     1 CellRange=     0.0.
 One-electron integrals computed using PRISM.
 One-electron integral symmetry used in STVInt
 NBasis=    60 RedAO= T  NBF=    25     5     5    25
 NBsUse=    60 1.00D-06 NBFU=    25     5     5    25
 Precomputing XC quadrature grid using
 IXCGrd= 2 IRadAn=           0 IRanWt=          -1 IRanGd=           0.
 NRdTot=    1258 NPtTot=      159804 NUsed=      168691 NTot=      168723
 NSgBfM=    59    59    59    59.
 Leave Link  302 at Sun Apr  7 14:58:43 2024, MaxMem=    6291456 cpu:       0.3
 (Enter /home/eric/data/opt/apps/gaussian/g03E.01/g03/l303.exe)
 DipDrv:  MaxL=1.
 Leave Link  303 at Sun Apr  7 14:58:43 2024, MaxMem=    6291456 cpu:       0.0
 (Enter /home/eric/data/opt/apps/gaussian/g03E.01/g03/l401.exe)
 Harris functional with IExCor=  402 diagonalized for initial guess.
 ExpMin= 1.69D-01 ExpMax= 7.16D+01 ExpMxC= 7.16D+01 IAcc=1 IRadAn=         1 AccDes= 1.00D-06
 HarFok:  IExCor= 402 AccDes= 1.00D-06 IRadAn=         1 IDoV=1
 ScaDFX=  1.000000  1.000000  1.000000  1.000000
 Harris En= -382.321880863314    
 Initial guess orbital symmetries:
       Occupied  (BU) (AG) (AG) (BU) (BU) (AG) (BU) (AG) (BU) (AG)
                 (AG) (BU) (AG) (BU) (BU) (AG) (AG) (BU) (AG) (AG)
                 (BU) (BU) (AG) (BU) (BU) (BU) (AG) (AU) (AG) (BU)
                 (AG) (BG) (AU) (BG) (BG)
       Virtual   (AU) (AU) (BG) (AU) (BG) (BU) (AG) (BU) (AG) (AG)
                 (BU) (BU) (AG) (BU) (AG) (AG) (BU) (AG) (BU) (BU)
                 (AG) (AG) (BU) (AG) (BU)
 The electronic state of the initial guess is 1-AG.
 Leave Link  401 at Sun Apr  7 14:58:43 2024, MaxMem=    6291456 cpu:       0.1
 (Enter /home/eric/data/opt/apps/gaussian/g03E.01/g03/l502.exe)
 Closed shell SCF:
 Requested convergence on RMS density matrix=1.00D-08 within 128 cycles.
 Requested convergence on MAX density matrix=1.00D-06.
 Requested convergence on             energy=1.00D-06.
 No special actions if energy rises.
 Using DIIS extrapolation, IDIIS=  1040.
 Integral symmetry usage will be decided dynamically.
       168690 words used for storage of precomputed grid.
 Keep R1 integrals in memory in canonical form, NReq=     3555743.
 IEnd=    199308 IEndB=    199308 NGot=   6291456 MDV=   4437070
 LenX=   4437070
 Symmetry not used in FoFDir.
 MinBra= 0 MaxBra= 1 Meth= 1.
 IRaf=       0 NMat=   1 IRICut=       1 DoRegI=T DoRafI=F ISym2E= 0 JSym2E=0.
 Integral accuracy reduced to 1.0D-05 until final iterations.

 Cycle   1  Pass 0  IDiag  1:
 E= -382.209119491179    
 DIIS: error= 2.29D-02 at cycle   1 NSaved=   1.
 NSaved= 1 IEnMin= 1 EnMin= -382.209119491179     IErMin= 1 ErrMin= 2.29D-02
 ErrMax= 2.29D-02 EMaxC= 1.00D-01 BMatC= 5.82D-02 BMatP= 5.82D-02
 IDIUse=3 WtCom= 7.71D-01 WtEn= 2.29D-01
 Coeff-Com:  0.100D+01
 Coeff-En:   0.100D+01
 Coeff:      0.100D+01
 Gap=     0.200 Goal=   None    Shift=    0.000
 GapD=    0.200 DampG=1.000 DampE=0.500 DampFc=0.5000 IDamp=-1.
 Damping current iteration by 5.00D-01
 RMSDP=9.77D-03 MaxDP=1.17D-01              OVMax= 7.71D-03

 Cycle   2  Pass 0  IDiag  1:
 E= -382.256664702503     Delta-E=       -0.047545211323 Rises=F Damp=T
 DIIS: error= 5.40D-03 at cycle   2 NSaved=   2.
 NSaved= 2 IEnMin= 2 EnMin= -382.256664702503     IErMin= 2 ErrMin= 5.40D-03
 ErrMax= 5.40D-03 EMaxC= 1.00D-01 BMatC= 3.71D-03 BMatP= 5.82D-02
 IDIUse=3 WtCom= 9.46D-01 WtEn= 5.40D-02
 Coeff-Com: -0.293D+00 0.129D+01
 Coeff-En:   0.000D+00 0.100D+01
 Coeff:     -0.277D+00 0.128D+01
 Gap=     0.201 Goal=   None    Shift=    0.000
 RMSDP=1.77D-03 MaxDP=1.96D-02 DE=-4.75D-02 OVMax= 2.43D-02

 Cycle   3  Pass 0  IDiag  1:
 E= -382.293163115795     Delta-E=       -0.036498413292 Rises=F Damp=F
 DIIS: error= 4.68D-03 at cycle   3 NSaved=   3.
 NSaved= 3 IEnMin= 3 EnMin= -382.293163115795     IErMin= 3 ErrMin= 4.68D-03
 ErrMax= 4.68D-03 EMaxC= 1.00D-01 BMatC= 8.78D-04 BMatP= 3.71D-03
 IDIUse=3 WtCom= 9.53D-01 WtEn= 4.68D-02
 Coeff-Com: -0.161D+00 0.681D+00 0.480D+00
 Coeff-En:   0.000D+00 0.000D+00 0.100D+01
 Coeff:     -0.153D+00 0.649D+00 0.505D+00
 Gap=     0.201 Goal=   None    Shift=    0.000
 RMSDP=8.56D-04 MaxDP=2.16D-02 DE=-3.65D-02 OVMax= 1.72D-02

 Cycle   4  Pass 0  IDiag  1:
 E= -382.294056595717     Delta-E=       -0.000893479922 Rises=F Damp=F
 DIIS: error= 2.19D-03 at cycle   4 NSaved=   4.
 NSaved= 4 IEnMin= 4 EnMin= -382.294056595717     IErMin= 4 ErrMin= 2.19D-03
 ErrMax= 2.19D-03 EMaxC= 1.00D-01 BMatC= 1.73D-04 BMatP= 8.78D-04
 IDIUse=3 WtCom= 9.78D-01 WtEn= 2.19D-02
 Coeff-Com: -0.251D-02 0.736D-02 0.308D+00 0.687D+00
 Coeff-En:   0.000D+00 0.000D+00 0.206D+00 0.794D+00
 Coeff:     -0.246D-02 0.720D-02 0.306D+00 0.690D+00
 Gap=     0.201 Goal=   None    Shift=    0.000
 RMSDP=2.71D-04 MaxDP=6.84D-03 DE=-8.93D-04 OVMax= 5.98D-03

 Cycle   5  Pass 0  IDiag  1:
 E= -382.294275739743     Delta-E=       -0.000219144027 Rises=F Damp=F
 DIIS: error= 1.05D-04 at cycle   5 NSaved=   5.
 NSaved= 5 IEnMin= 5 EnMin= -382.294275739743     IErMin= 5 ErrMin= 1.05D-04
 ErrMax= 1.05D-04 EMaxC= 1.00D-01 BMatC= 6.86D-07 BMatP= 1.73D-04
 IDIUse=3 WtCom= 9.99D-01 WtEn= 1.05D-03
 Coeff-Com: -0.473D-03 0.519D-03 0.140D+00 0.322D+00 0.538D+00
 Coeff-En:   0.000D+00 0.000D+00 0.000D+00 0.000D+00 0.100D+01
 Coeff:     -0.472D-03 0.518D-03 0.139D+00 0.322D+00 0.539D+00
 Gap=     0.201 Goal=   None    Shift=    0.000
 RMSDP=2.17D-05 MaxDP=2.99D-04 DE=-2.19D-04 OVMax= 3.32D-04

 Cycle   6  Pass 0  IDiag  1:
 E= -382.294276616421     Delta-E=       -0.000000876677 Rises=F Damp=F
 DIIS: error= 1.95D-05 at cycle   6 NSaved=   6.
 NSaved= 6 IEnMin= 6 EnMin= -382.294276616421     IErMin= 6 ErrMin= 1.95D-05
 ErrMax= 1.95D-05 EMaxC= 1.00D-01 BMatC= 2.48D-08 BMatP= 6.86D-07
 IDIUse=1 WtCom= 1.00D+00 WtEn= 0.00D+00
 Coeff-Com:  0.674D-04-0.382D-03 0.144D-01 0.330D-01 0.179D+00 0.774D+00
 Coeff:      0.674D-04-0.382D-03 0.144D-01 0.330D-01 0.179D+00 0.774D+00
 Gap=     0.201 Goal=   None    Shift=    0.000
 RMSDP=3.68D-06 MaxDP=5.68D-05 DE=-8.77D-07 OVMax= 6.38D-05

 Initial convergence to 1.0D-05 achieved.  Increase integral accuracy.
 Cycle   7  Pass 1  IDiag  1:
 E= -382.294286572003     Delta-E=       -0.000009955582 Rises=F Damp=F
 DIIS: error= 5.38D-06 at cycle   1 NSaved=   1.
 NSaved= 1 IEnMin= 1 EnMin= -382.294286572003     IErMin= 1 ErrMin= 5.38D-06
 ErrMax= 5.38D-06 EMaxC= 1.00D-01 BMatC= 2.28D-09 BMatP= 2.28D-09
 IDIUse=1 WtCom= 1.00D+00 WtEn= 0.00D+00
 Coeff-Com:  0.100D+01
 Coeff:      0.100D+01
 Gap=     0.201 Goal=   None    Shift=    0.000
 RMSDP=3.68D-06 MaxDP=5.68D-05 DE=-9.96D-06 OVMax= 3.49D-05

 Cycle   8  Pass 1  IDiag  1:
 E= -382.294286572759     Delta-E=       -0.000000000757 Rises=F Damp=F
 DIIS: error= 6.05D-06 at cycle   2 NSaved=   2.
 NSaved= 2 IEnMin= 2 EnMin= -382.294286572759     IErMin= 1 ErrMin= 5.38D-06
 ErrMax= 6.05D-06 EMaxC= 1.00D-01 BMatC= 2.16D-09 BMatP= 2.28D-09
 IDIUse=1 WtCom= 1.00D+00 WtEn= 0.00D+00
 Coeff-Com:  0.492D+00 0.508D+00
 Coeff:      0.492D+00 0.508D+00
 Gap=     0.201 Goal=   None    Shift=    0.000
 RMSDP=1.20D-06 MaxDP=1.71D-05 DE=-7.57D-10 OVMax= 1.62D-05

 Cycle   9  Pass 1  IDiag  1:
 E= -382.294286575345     Delta-E=       -0.000000002585 Rises=F Damp=F
 DIIS: error= 1.86D-06 at cycle   3 NSaved=   3.
 NSaved= 3 IEnMin= 3 EnMin= -382.294286575345     IErMin= 3 ErrMin= 1.86D-06
 ErrMax= 1.86D-06 EMaxC= 1.00D-01 BMatC= 1.69D-10 BMatP= 2.16D-09
 IDIUse=1 WtCom= 1.00D+00 WtEn= 0.00D+00
 Coeff-Com:  0.131D+00 0.246D+00 0.622D+00
 Coeff:      0.131D+00 0.246D+00 0.622D+00
 Gap=     0.201 Goal=   None    Shift=    0.000
 RMSDP=3.51D-07 MaxDP=8.32D-06 DE=-2.59D-09 OVMax= 6.80D-06

 Cycle  10  Pass 1  IDiag  1:
 E= -382.294286575503     Delta-E=       -0.000000000158 Rises=F Damp=F
 DIIS: error= 1.02D-06 at cycle   4 NSaved=   4.
 NSaved= 4 IEnMin= 4 EnMin= -382.294286575503     IErMin= 4 ErrMin= 1.02D-06
 ErrMax= 1.02D-06 EMaxC= 1.00D-01 BMatC= 4.28D-11 BMatP= 1.69D-10
 IDIUse=1 WtCom= 1.00D+00 WtEn= 0.00D+00
 Coeff-Com: -0.975D-02 0.656D-01 0.384D+00 0.561D+00
 Coeff:     -0.975D-02 0.656D-01 0.384D+00 0.561D+00
 Gap=     0.201 Goal=   None    Shift=    0.000
 RMSDP=1.44D-07 MaxDP=3.29D-06 DE=-1.58D-10 OVMax= 2.03D-06

 Cycle  11  Pass 1  IDiag  1:
 E= -382.294286575554     Delta-E=       -0.000000000051 Rises=F Damp=F
 DIIS: error= 1.92D-07 at cycle   5 NSaved=   5.
 NSaved= 5 IEnMin= 5 EnMin= -382.294286575554     IErMin= 5 ErrMin= 1.92D-07
 ErrMax= 1.92D-07 EMaxC= 1.00D-01 BMatC= 1.78D-12 BMatP= 4.28D-11
 IDIUse=1 WtCom= 1.00D+00 WtEn= 0.00D+00
 Coeff-Com: -0.948D-02 0.254D-01 0.174D+00 0.296D+00 0.514D+00
 Coeff:     -0.948D-02 0.254D-01 0.174D+00 0.296D+00 0.514D+00
 Gap=     0.201 Goal=   None    Shift=    0.000
 RMSDP=3.27D-08 MaxDP=4.90D-07 DE=-5.09D-11 OVMax= 6.44D-07

 Cycle  12  Pass 1  IDiag  1:
 E= -382.294286575555     Delta-E=       -0.000000000001 Rises=F Damp=F
 DIIS: error= 1.77D-08 at cycle   6 NSaved=   6.
 NSaved= 6 IEnMin= 6 EnMin= -382.294286575555     IErMin= 6 ErrMin= 1.77D-08
 ErrMax= 1.77D-08 EMaxC= 1.00D-01 BMatC= 1.31D-14 BMatP= 1.78D-12
 IDIUse=1 WtCom= 1.00D+00 WtEn= 0.00D+00
 Coeff-Com: -0.584D-03-0.310D-03-0.110D-02 0.228D-02 0.785D-01 0.921D+00
 Coeff:     -0.584D-03-0.310D-03-0.110D-02 0.228D-02 0.785D-01 0.921D+00
 Gap=     0.201 Goal=   None    Shift=    0.000
 RMSDP=3.30D-09 MaxDP=4.06D-08 DE=-1.14D-12 OVMax= 4.13D-09

 SCF Done:  E(RB+HF-LYP) =  -382.294286576     A.U. after   12 cycles
             Convg  =    0.3296D-08             -V/T =  2.0160
             S**2   =   0.0000
 KE= 3.762730988461D+02 PE=-1.795331114181D+03 EE= 5.814568085474D+02
 Leave Link  502 at Sun Apr  7 14:58:46 2024, MaxMem=    6291456 cpu:       2.4
 (Enter /home/eric/data/opt/apps/gaussian/g03E.01/g03/l601.exe)
 Copying SCF densities to generalized density rwf, ISCF=0 IROHF=0.

 **********************************************************************

            Population analysis using the SCF density.

 **********************************************************************

 Orbital symmetries:
       Occupied  (BU) (AG) (BU) (AG) (AG) (BU) (BU) (AG) (BU) (AG)
                 (AG) (BU) (AG) (BU) (BU) (AG) (AG) (BU) (AG) (AG)
                 (BU) (BU) (BU) (AG) (BU) (BU) (AG) (AU) (BU) (AG)
                 (AG) (BG) (AU) (BG) (BG)
       Virtual   (AU) (AU) (BG) (AU) (BG) (AG) (BU) (AG) (BU) (BU)
                 (AG) (BU) (AG) (BU) (AG) (AG) (BU) (AG) (BU) (BU)
                 (AG) (AG) (BU) (AG) (BU)
 The electronic state is 1-AG.
 Alpha  occ. eigenvalues --  -10.01922 -10.01915 -10.00733 -10.00728 -10.00558
 Alpha  occ. eigenvalues --  -10.00557 -10.00552 -10.00541  -9.98966  -9.98966
 Alpha  occ. eigenvalues --   -0.82795  -0.76365  -0.72060  -0.70924  -0.67032
 Alpha  occ. eigenvalues --   -0.59492  -0.56528  -0.53402  -0.51553  -0.46363
 Alpha  occ. eigenvalues --   -0.44625  -0.41365  -0.40271  -0.39710  -0.37822
 Alpha  occ. eigenvalues --   -0.35387  -0.34850  -0.33887  -0.31250  -0.29779
 Alpha  occ. eigenvalues --   -0.28751  -0.27004  -0.21230  -0.19997  -0.15689
 Alpha virt. eigenvalues --    0.04399   0.09120   0.11237   0.18909   0.29008
 Alpha virt. eigenvalues --    0.33877   0.33892   0.37885   0.38932   0.41782
 Alpha virt. eigenvalues --    0.42010   0.43101   0.46747   0.48492   0.50818
 Alpha virt. eigenvalues --    0.55385   0.57757   0.59385   0.62062   0.64333
 Alpha virt. eigenvalues --    0.66846   0.68505   0.73979   0.82244   0.84195
          Condensed to atoms (all electrons):
              1          2          3          4          5          6
     1  C    4.764089   0.501505  -0.029525  -0.013123  -0.032034  -0.025390
     2  C    0.501505   4.807304   0.511019  -0.032034  -0.013956   0.390718
     3  C   -0.029525   0.511019   4.799931   0.509405  -0.032149  -0.025601
     4  C   -0.013123  -0.032034   0.509405   4.764089   0.501505   0.001572
     5  C   -0.032034  -0.013956  -0.032149   0.501505   4.807304   0.000058
     6  H   -0.025390   0.390718  -0.025601   0.001572   0.000058   0.587038
     7  H    0.001472  -0.025288   0.390624  -0.026214   0.001569  -0.003928
     8  H    0.001572   0.000058   0.001515  -0.025390   0.390718   0.000002
     9  C    0.000027   0.001087  -0.031482   0.412896  -0.027940  -0.000020
    10  C    0.000000  -0.000010   0.000797  -0.026564  -0.007605   0.000000
    11  H   -0.000001  -0.000001   0.000027  -0.004839  -0.002522   0.000000
    12  H   -0.000001   0.000017  -0.003986  -0.025932   0.001192  -0.000001
    13  H    0.000000   0.000000  -0.000018   0.001456   0.000067   0.000000
    14  C    0.412896  -0.027940   0.000949   0.000027   0.001087  -0.004315
    15  H   -0.025932   0.001192  -0.000020  -0.000001   0.000017   0.000038
    16  C   -0.026564  -0.007605   0.000045   0.000000  -0.000010  -0.002531
    17  H   -0.004839  -0.002522  -0.000015  -0.000001  -0.000001   0.001237
    18  H    0.001456   0.000067   0.000000   0.000000   0.000000  -0.000014
    19  C    0.509405  -0.032149  -0.012061  -0.029525   0.511019   0.001515
    20  H   -0.026214   0.001569   0.000035   0.001472  -0.025288  -0.000038
              7          8          9         10         11         12
     1  C    0.001472   0.001572   0.000027   0.000000  -0.000001  -0.000001
     2  C   -0.025288   0.000058   0.001087  -0.000010  -0.000001   0.000017
     3  C    0.390624   0.001515  -0.031482   0.000797   0.000027  -0.003986
     4  C   -0.026214  -0.025390   0.412896  -0.026564  -0.004839  -0.025932
     5  C    0.001569   0.390718  -0.027940  -0.007605  -0.002522   0.001192
     6  H   -0.003928   0.000002  -0.000020   0.000000   0.000000  -0.000001
     7  H    0.585153  -0.000038  -0.004703   0.000042   0.000001   0.001081
     8  H   -0.000038   0.587038  -0.004315  -0.002531   0.001237   0.000038
     9  C   -0.004703  -0.004315   4.800886   0.588796  -0.025299   0.386991
    10  C    0.000042  -0.002531   0.588796   4.853158   0.385695  -0.026216
    11  H    0.000001   0.001237  -0.025299   0.385695   0.591512   0.002047
    12  H    0.001081   0.000038   0.386991  -0.026216   0.002047   0.593036
    13  H   -0.000003  -0.000014  -0.024199   0.393657  -0.022895  -0.004422
    14  C   -0.000018  -0.000020   0.000000   0.000000   0.000000   0.000000
    15  H    0.000000  -0.000001   0.000000   0.000000   0.000000   0.000000
    16  C    0.000001   0.000000   0.000000   0.000000   0.000000   0.000000
    17  H    0.000006   0.000000   0.000000   0.000000   0.000000   0.000000
    18  H    0.000000   0.000000   0.000000   0.000000   0.000000   0.000000
    19  C    0.000035  -0.025601   0.000949   0.000045  -0.000015  -0.000020
    20  H    0.000003  -0.003928  -0.000018   0.000001   0.000006   0.000000
             13         14         15         16         17         18
     1  C    0.000000   0.412896  -0.025932  -0.026564  -0.004839   0.001456
     2  C    0.000000  -0.027940   0.001192  -0.007605  -0.002522   0.000067
     3  C   -0.000018   0.000949  -0.000020   0.000045  -0.000015   0.000000
     4  C    0.001456   0.000027  -0.000001   0.000000  -0.000001   0.000000
     5  C    0.000067   0.001087   0.000017  -0.000010  -0.000001   0.000000
     6  H    0.000000  -0.004315   0.000038  -0.002531   0.001237  -0.000014
     7  H   -0.000003  -0.000018   0.000000   0.000001   0.000006   0.000000
     8  H   -0.000014  -0.000020  -0.000001   0.000000   0.000000   0.000000
     9  C   -0.024199   0.000000   0.000000   0.000000   0.000000   0.000000
    10  C    0.393657   0.000000   0.000000   0.000000   0.000000   0.000000
    11  H   -0.022895   0.000000   0.000000   0.000000   0.000000   0.000000
    12  H   -0.004422   0.000000   0.000000   0.000000   0.000000   0.000000
    13  H    0.573220   0.000000   0.000000   0.000000   0.000000   0.000000
    14  C    0.000000   4.800886   0.386991   0.588796  -0.025299  -0.024199
    15  H    0.000000   0.386991   0.593036  -0.026216   0.002047  -0.004422
    16  C    0.000000   0.588796  -0.026216   4.853158   0.385695   0.393657
    17  H    0.000000  -0.025299   0.002047   0.385695   0.591512  -0.022895
    18  H    0.000000  -0.024199  -0.004422   0.393657  -0.022895   0.573220
    19  C    0.000000  -0.031482  -0.003986   0.000797   0.000027  -0.000018
    20  H    0.000000  -0.004703   0.001081   0.000042   0.000001  -0.000003
             19         20
     1  C    0.509405  -0.026214
     2  C   -0.032149   0.001569
     3  C   -0.012061   0.000035
     4  C   -0.029525   0.001472
     5  C    0.511019  -0.025288
     6  H    0.001515  -0.000038
     7  H    0.000035   0.000003
     8  H   -0.025601  -0.003928
     9  C    0.000949  -0.000018
    10  C    0.000045   0.000001
    11  H   -0.000015   0.000006
    12  H   -0.000020   0.000000
    13  H    0.000000   0.000000
    14  C   -0.031482  -0.004703
    15  H   -0.003986   0.001081
    16  C    0.000797   0.000042
    17  H    0.000027   0.000001
    18  H   -0.000018  -0.000003
    19  C    4.799931   0.390624
    20  H    0.390624   0.585153
 Mulliken atomic charges:
              1
     1  C   -0.008799
     2  C   -0.073030
     3  C   -0.079490
     4  C   -0.008799
     5  C   -0.073030
     6  H    0.079660
     7  H    0.080205
     8  H    0.079660
     9  C   -0.073656
    10  C   -0.159263
    11  H    0.075047
    12  H    0.076175
    13  H    0.083151
    14  C   -0.073656
    15  H    0.076175
    16  C   -0.159263
    17  H    0.075047
    18  H    0.083151
    19  C   -0.079490
    20  H    0.080205
 Sum of Mulliken charges=   0.00000
 Atomic charges with hydrogens summed into heavy atoms:
              1
     1  C   -0.008799
     2  C    0.006631
     3  C    0.000715
     4  C   -0.008799
     5  C    0.006631
     6  H    0.000000
     7  H    0.000000
     8  H    0.000000
     9  C    0.002519
    10  C   -0.001065
    11  H    0.000000
    12  H    0.000000
    13  H    0.000000
    14  C    0.002519
    15  H    0.000000
    16  C   -0.001065
    17  H    0.000000
    18  H    0.000000
    19  C    0.000715
    20  H    0.000000
 Sum of Mulliken charges=   0.00000
 Electronic spatial extent (au):  <R**2>=  1768.3914
 Charge=     0.0000 electrons
 Dipole moment (field-independent basis, Debye):
    X=     0.0000    Y=     0.0000    Z=     0.0000  Tot=     0.0000
 Quadrupole moment (field-independent basis, Debye-Ang):
   XX=   -50.3164   YY=   -51.5398   ZZ=   -58.4697
   XY=    -0.1147   XZ=     0.0000   YZ=     0.0000
 Traceless Quadrupole moment (field-independent basis, Debye-Ang):
   XX=     3.1256   YY=     1.9022   ZZ=    -5.0277
   XY=    -0.1147   XZ=     0.0000   YZ=     0.0000
 Octapole moment (field-independent basis, Debye-Ang**2):
  XXX=     0.0000  YYY=     0.0000  ZZZ=     0.0000  XYY=     0.0000
  XXY=     0.0000  XXZ=     0.0000  XZZ=     0.0000  YZZ=     0.0000
  YYZ=     0.0000  XYZ=     0.0000
 Hexadecapole moment (field-independent basis, Debye-Ang**3):
 XXXX=  -328.6077 YYYY= -1766.6898 ZZZZ=   -47.4178 XXXY=   -27.2080
 XXXZ=     0.0000 YYYX=   -29.1008 YYYZ=     0.0000 ZZZX=     0.0000
 ZZZY=     0.0000 XXYY=  -351.6600 XXZZ=   -71.6128 YYZZ=  -345.6033
 XXYZ=     0.0000 YYXZ=     0.0000 ZZXY=    -8.8337
 N-N= 4.553069202117D+02 E-N=-1.795331114998D+03  KE= 3.762730988461D+02
 Symmetry AG   KE= 1.815960476060D+02
 Symmetry BG   KE= 7.824362958274D+00
 Symmetry AU   KE= 4.675857341854D+00
 Symmetry BU   KE= 1.821768309400D+02
 No NMR shielding tensors so no spin-rotation constants.
 Leave Link  601 at Sun Apr  7 14:58:46 2024, MaxMem=    6291456 cpu:       0.0
 (Enter /home/eric/data/opt/apps/gaussian/g03E.01/g03/l701.exe)
 Compute integral first derivatives.
 ... and contract with generalized density number  0.
 Leave Link  701 at Sun Apr  7 14:58:46 2024, MaxMem=    6291456 cpu:       0.0
 (Enter /home/eric/data/opt/apps/gaussian/g03E.01/g03/l702.exe)
 L702 exits ... SP integral derivatives will be done elsewhere.
 Leave Link  702 at Sun Apr  7 14:58:46 2024, MaxMem=    6291456 cpu:       0.0
 (Enter /home/eric/data/opt/apps/gaussian/g03E.01/g03/l703.exe)
 Compute integral first derivatives, UseDBF=F.
 Integral derivatives from FoFDir, PRISM(SPDF).
 Petite list used in FoFDir.
 MinBra= 0 MaxBra= 1 Meth= 1.
 IRaf=       0 NMat=   1 IRICut=       1 DoRegI=T DoRafI=F ISym2E= 1 JSym2E=1.
 Leave Link  703 at Sun Apr  7 14:58:47 2024, MaxMem=    6291456 cpu:       0.7
 (Enter /home/eric/data/opt/apps/gaussian/g03E.01/g03/l716.exe)
 Dipole        = 1.77635684D-14 1.32116540D-13-6.01692440D-33
 ***** Axes restored to original set *****
 -------------------------------------------------------------------
 Center     Atomic                   Forces (Hartrees/Bohr)
 Number     Number              X              Y              Z
 -------------------------------------------------------------------
    1          6          -0.050445478    0.000000000    0.000608783
    2          6          -0.007192219    0.000000000    0.023826828
    3          6          -0.038640980    0.000000000    0.029672336
    4          6           0.050445478    0.000000000   -0.000608783
    5          6           0.007192219    0.000000000   -0.023826828
    6          1           0.001102465    0.000000000    0.001401881
    7          1           0.000689908    0.000000000    0.001364170
    8          1          -0.001102465    0.000000000   -0.001401881
    9          6           0.010354685    0.000000000    0.002832112
   10          6          -0.019284469    0.000000000   -0.013642538
   11          1           0.006391193    0.000000000    0.008453363
   12          1           0.001223055    0.000000000    0.001279470
   13          1           0.019477317    0.000000000    0.010368479
   14          6          -0.010354685    0.000000000   -0.002832112
   15          1          -0.001223055    0.000000000   -0.001279470
   16          6           0.019284469    0.000000000    0.013642538
   17          1          -0.006391193    0.000000000   -0.008453363
   18          1          -0.019477317    0.000000000   -0.010368479
   19          6           0.038640980    0.000000000   -0.029672336
   20          1          -0.000689908    0.000000000   -0.001364170
 -------------------------------------------------------------------
 Cartesian Forces:  Max     0.050445478 RMS     0.015076708
 Leave Link  716 at Sun Apr  7 14:58:47 2024, MaxMem=    6291456 cpu:       0.0
 (Enter /home/eric/data/opt/apps/gaussian/g03E.01/g03/l103.exe)

 GradGradGradGradGradGradGradGradGradGradGradGradGradGradGradGradGradGrad
 Berny optimization.
 Internal  Forces:  Max     0.060659745 RMS     0.012898107
 Search for a local minimum.
 Step number   1 out of a maximum of   5
 All quantities printed in internal units (Hartrees-Bohrs-Radians)
 Second derivative matrix not updated -- first step.
     Eigenvalues ---    0.00953   0.00953   0.01898   0.01946   0.01946
     Eigenvalues ---    0.01956   0.02216   0.02216   0.02216   0.02322
     Eigenvalues ---    0.02385   0.02407   0.02428   0.02844   0.02844
     Eigenvalues ---    0.02844   0.02844   0.16000   0.16000   0.16000
     Eigenvalues ---    0.16000   0.16000   0.16000   0.16000   0.16000
     Eigenvalues ---    0.16000   0.16000   0.22000   0.22000   0.22000
     Eigenvalues ---    0.22990   0.24000   0.25000   0.25000   0.33293
     Eigenvalues ---    0.33293   0.33871   0.33871   0.33908   0.33908
     Eigenvalues ---    0.34129   0.34129   0.34250   0.34250   0.37230
     Eigenvalues ---    0.37230   0.42731   0.44616   0.47048   0.47458
     Eigenvalues ---    0.49618   0.51718   0.56553   0.565531000.00000
     Eigenvalues --- 1000.000001000.000001000.000001000.000001000.00000
     Eigenvalues --- 1000.000001000.000001000.000001000.000001000.00000
     Eigenvalues --- 1000.000001000.000001000.000001000.000001000.00000
     Eigenvalues --- 1000.000001000.000001000.000001000.000001000.00000
     Eigenvalues --- 1000.000001000.000001000.000001000.000001000.00000
     Eigenvalues --- 1000.000001000.000001000.000001000.000001000.00000
     Eigenvalues --- 1000.000001000.000001000.000001000.000001000.00000
 RFO step:  Lambda=-3.47894038D-02.
 Linear search not attempted -- first point.
 Maximum step size (   0.010) exceeded in Quadratic search.
    -- Step size scaled by   0.033
 Iteration  1 RMS(Cart)=  0.00468275 RMS(Int)=  0.00000378
 Iteration  2 RMS(Cart)=  0.00000490 RMS(Int)=  0.00000000
 Iteration  3 RMS(Cart)=  0.00000000 RMS(Int)=  0.00000000
 Variable       Old X    -DE/DX   Delta X   Delta X   Delta X     New X
                                 (Linear)    (Quad)   (Total)
    R1        2.62967   0.03247   0.00000   0.00214   0.00214   2.63180
    R2        2.80785   0.02037   0.00000   0.00181   0.00181   2.80966
    R3        2.58171   0.06066   0.00000   0.00365   0.00365   2.58536
    R4        2.62521   0.01952   0.00000   0.00127   0.00127   2.62648
    R5        2.06910  -0.00026   0.00000  -0.00002  -0.00002   2.06908
    R6        2.58171   0.06066   0.00000   0.00365   0.00365   2.58536
    R7        2.07112   0.00136   0.00000   0.00012   0.00012   2.07124
    R8        2.62967   0.03247   0.00000   0.00214   0.00214   2.63180
    R9        2.80785   0.02037   0.00000   0.00181   0.00181   2.80966
   R10        2.06910  -0.00026   0.00000  -0.00002  -0.00002   2.06908
   R11        2.62521   0.01952   0.00000   0.00127   0.00127   2.62648
   R12        2.53777   0.00359   0.00000   0.00020   0.00020   2.53797
   R13        2.07549   0.00118   0.00000   0.00011   0.00011   2.07559
   R14        2.08541  -0.00810   0.00000  -0.00073  -0.00073   2.08468
   R15        2.02201   0.02203   0.00000   0.00180   0.00180   2.02381
   R16        2.07549   0.00118   0.00000   0.00011   0.00011   2.07559
   R17        2.53777   0.00359   0.00000   0.00020   0.00020   2.53797
   R18        2.08541  -0.00810   0.00000  -0.00073  -0.00073   2.08468
   R19        2.02201   0.02203   0.00000   0.00180   0.00180   2.02381
   R20        2.07112   0.00136   0.00000   0.00012   0.00012   2.07124
    A1        2.09248   0.01864   0.00000   0.00220   0.00220   2.09468
    A2        2.09677  -0.01184   0.00000  -0.00143  -0.00143   2.09534
    A3        2.09393  -0.00680   0.00000  -0.00077  -0.00077   2.09316
    A4        2.09894   0.00244   0.00000   0.00026   0.00026   2.09921
    A5        2.09264   0.00061   0.00000   0.00018   0.00018   2.09282
    A6        2.09160  -0.00305   0.00000  -0.00044  -0.00044   2.09116
    A7        2.08747   0.00940   0.00000   0.00117   0.00117   2.08864
    A8        2.09342  -0.00398   0.00000  -0.00046  -0.00046   2.09296
    A9        2.10230  -0.00543   0.00000  -0.00071  -0.00071   2.10159
   A10        2.09677  -0.01184   0.00000  -0.00143  -0.00143   2.09534
   A11        2.09393  -0.00680   0.00000  -0.00077  -0.00077   2.09316
   A12        2.09248   0.01864   0.00000   0.00220   0.00220   2.09468
   A13        2.09264   0.00061   0.00000   0.00018   0.00018   2.09282
   A14        2.09894   0.00244   0.00000   0.00026   0.00026   2.09921
   A15        2.09160  -0.00305   0.00000  -0.00044  -0.00044   2.09116
   A16        2.15726   0.01976   0.00000   0.00258   0.00258   2.15984
   A17        2.01608  -0.00851   0.00000  -0.00106  -0.00106   2.01503
   A18        2.10985  -0.01125   0.00000  -0.00152  -0.00152   2.10832
   A19        2.08687   0.00869   0.00000   0.00148   0.00148   2.08835
   A20        2.13526  -0.00313   0.00000  -0.00053  -0.00053   2.13473
   A21        2.06105  -0.00556   0.00000  -0.00095  -0.00095   2.06010
   A22        2.01608  -0.00851   0.00000  -0.00106  -0.00106   2.01503
   A23        2.15726   0.01976   0.00000   0.00258   0.00258   2.15984
   A24        2.10985  -0.01125   0.00000  -0.00152  -0.00152   2.10832
   A25        2.08687   0.00869   0.00000   0.00148   0.00148   2.08835
   A26        2.13526  -0.00313   0.00000  -0.00053  -0.00053   2.13473
   A27        2.06105  -0.00556   0.00000  -0.00095  -0.00095   2.06010
   A28        2.08747   0.00940   0.00000   0.00117   0.00117   2.08864
   A29        2.10230  -0.00543   0.00000  -0.00071  -0.00071   2.10159
   A30        2.09342  -0.00398   0.00000  -0.00046  -0.00046   2.09296
    D1        3.14159   0.00000   0.00000   0.00000   0.00000   3.14159
    D2        0.00000   0.00000   0.00000   0.00000   0.00000   0.00000
    D3        0.00000   0.00000   0.00000   0.00000   0.00000   0.00000
    D4        3.14159   0.00000   0.00000   0.00000   0.00000   3.14159
    D5        3.14159   0.00000   0.00000   0.00000   0.00000   3.14159
    D6        0.00000   0.00000   0.00000   0.00000   0.00000   0.00000
    D7        0.00000   0.00000   0.00000   0.00000   0.00000   0.00000
    D8        3.14159   0.00000   0.00000   0.00000   0.00000   3.14159
    D9        0.00000   0.00000   0.00000   0.00000   0.00000   0.00000
   D10        3.14159   0.00000   0.00000   0.00000   0.00000   3.14159
   D11        3.14159   0.00000   0.00000   0.00000   0.00000   3.14159
   D12        0.00000   0.00000   0.00000   0.00000   0.00000   0.00000
   D13        0.00000   0.00000   0.00000   0.00000   0.00000   0.00000
   D14        3.14159   0.00000   0.00000   0.00000   0.00000   3.14159
   D15        3.14159   0.00000   0.00000   0.00000   0.00000   3.14159
   D16        0.00000   0.00000   0.00000   0.00000   0.00000   0.00000
   D17        0.00000   0.00000   0.00000   0.00000   0.00000   0.00000
   D18        3.14159   0.00000   0.00000   0.00000   0.00000   3.14159
   D19        3.14159   0.00000   0.00000   0.00000   0.00000   3.14159
   D20        0.00000   0.00000   0.00000   0.00000   0.00000   0.00000
   D21        3.14159   0.00000   0.00000   0.00000   0.00000   3.14159
   D22        0.00000   0.00000   0.00000   0.00000   0.00000   0.00000
   D23        0.00000   0.00000   0.00000   0.00000   0.00000   0.00000
   D24        3.14159   0.00000   0.00000   0.00000   0.00000   3.14159
   D25        3.14159   0.00000   0.00000   0.00000   0.00000   3.14159
   D26        0.00000   0.00000   0.00000   0.00000   0.00000   0.00000
   D27        0.00000   0.00000   0.00000   0.00000   0.00000   0.00000
   D28        3.14159   0.00000   0.00000   0.00000   0.00000   3.14159
   D29        0.00000   0.00000   0.00000   0.00000   0.00000   0.00000
   D30        3.14159   0.00000   0.00000   0.00000   0.00000   3.14159
   D31        3.14159   0.00000   0.00000   0.00000   0.00000   3.14159
   D32        0.00000   0.00000   0.00000   0.00000   0.00000   0.00000
   D33        0.00000   0.00000   0.00000   0.00000   0.00000   0.00000
   D34        3.14159   0.00000   0.00000   0.00000   0.00000   3.14159
   D35        3.14159   0.00000   0.00000   0.00000   0.00000   3.14159
   D36        0.00000   0.00000   0.00000   0.00000   0.00000   0.00000
   D37        0.00000   0.00000   0.00000   0.00000   0.00000   0.00000
   D38        3.14159   0.00000   0.00000   0.00000   0.00000   3.14159
   D39        3.14159   0.00000   0.00000   0.00000   0.00000   3.14159
   D40        0.00000   0.00000   0.00000   0.00000   0.00000   0.00000
         Item               Value     Threshold  Converged?
 Maximum Force            0.060660     0.000450     NO 
 RMS     Force            0.012898     0.000300     NO 
 Maximum Displacement     0.018950     0.001800     NO 
 RMS     Displacement     0.004684     0.001200     NO 
 Predicted change in Energy=-1.139097D-03
 GradGradGradGradGradGradGradGradGradGradGradGradGradGradGradGradGradGrad

 Leave Link  103 at Sun Apr  7 14:58:47 2024, MaxMem=    6291456 cpu:       0.0
 (Enter /home/eric/data/opt/apps/gaussian/g03E.01/g03/l202.exe)
                          Input orientation:                          
 ---------------------------------------------------------------------
 Center     Atomic     Atomic              Coordinates (Angstroms)
 Number     Number      Type              X           Y           Z
 ---------------------------------------------------------------------
    1          6             0       -0.002981    0.000000    0.001213
    2          6             0       -0.000100    0.000000    1.393901
    3          6             0        1.201657    0.000000    2.092135
    4          6             0        2.384410    0.000000    1.404510
    5          6             0        2.381529    0.000000    0.011822
    6          1             0       -0.948049    0.000000    1.941821
    7          1             0        1.197079    0.000000    3.188179
    8          1             0        3.329478    0.000000   -0.536098
    9          6             0        3.673345    0.000000    2.145620
   10          6             0        4.876812    0.000000    1.549456
   11          1             0        4.940337    0.000000    0.448124
   12          1             0        3.588210    0.000000    3.240671
   13          1             0        5.791543    0.000000    2.106417
   14          6             0       -1.291916    0.000000   -0.739898
   15          1             0       -1.206781    0.000000   -1.834949
   16          6             0       -2.495383    0.000000   -0.143733
   17          1             0       -2.558908    0.000000    0.957599
   18          1             0       -3.410114    0.000000   -0.700694
   19          6             0        1.179772    0.000000   -0.686413
   20          1             0        1.184350    0.000000   -1.782457
 ---------------------------------------------------------------------
                    Distance matrix (angstroms):
                    1          2          3          4          5
     1  C    0.000000
     2  C    1.392690   0.000000
     3  C    2.413111   1.389874   0.000000
     4  C    2.769273   2.384533   1.368113   0.000000
     5  C    2.384533   2.753597   2.391611   1.392690   0.000000
     6  H    2.158497   1.094908   2.154954   3.375498   3.848504
     7  H    3.405422   2.157006   1.096054   2.142716   3.390010
     8  H    3.375498   3.848504   3.381602   2.158497   1.094908
     9  C    4.256038   3.749571   2.472267   1.486809   2.494371
    10  C    5.119515   4.879392   3.715005   2.496613   2.930999
    11  H    4.963478   5.030150   4.084177   2.728999   2.595738
    12  H    4.836398   4.035657   2.648542   2.195592   3.446962
    13  H    6.165094   5.835307   4.589908   3.478682   4.001940
    14  C    1.486809   2.494371   3.773369   4.256038   3.749571
    15  H    2.195592   3.446962   4.606795   4.836398   4.035657
    16  C    2.496613   2.930999   4.320556   5.119515   4.879392
    17  H    2.728999   2.595738   3.927979   4.963478   5.030150
    18  H    3.478682   4.001940   5.391505   6.165094   5.835307
    19  C    1.368113   2.391611   2.778634   2.413111   1.389874
    20  H    2.142716   3.390010   3.874631   3.405422   2.157006
                    6          7          8          9         10
     6  H    0.000000
     7  H    2.480924   0.000000
     8  H    4.943411   4.291546   0.000000
     9  C    4.625886   2.686787   2.703675   0.000000
    10  C    5.838060   4.028132   2.596878   1.343035   0.000000
    11  H    6.074884   4.638952   1.887739   2.118198   1.103163
    12  H    4.718544   2.391707   3.785622   1.098356   2.126195
    13  H    6.741601   4.720096   3.611738   2.118560   1.070952
    14  C    2.703675   4.650257   4.625886   5.742825   6.579844
    15  H    3.785622   5.568695   4.718544   6.297663   6.961630
    16  C    2.596878   4.973522   5.838060   6.579844   7.564135
    17  H    1.887739   4.368401   6.074884   6.344476   7.459237
    18  H    3.611738   6.029060   6.741601   7.633931   8.586985
    19  C    3.381602   3.874631   2.154954   3.773369   4.320556
    20  H    4.291546   4.970652   2.480924   4.650257   4.973522
                   11         12         13         14         15
    11  H    0.000000
    12  H    3.102671   0.000000
    13  H    1.863998   2.478146   0.000000
    14  C    6.344476   6.297663   7.633931   0.000000
    15  H    6.557399   6.982397   8.031868   1.098356   0.000000
    16  C    7.459237   6.961630   8.586985   1.343035   2.126195
    17  H    7.516530   6.557399   8.429105   2.118198   3.102671
    18  H    8.429105   8.031868   9.620310   2.118560   2.478146
    19  C    3.927979   4.606795   5.391505   2.472267   2.648542
    20  H    4.368401   5.568695   6.029060   2.686787   2.391707
                   16         17         18         19         20
    16  C    0.000000
    17  H    1.103163   0.000000
    18  H    1.070952   1.863998   0.000000
    19  C    3.715005   4.084177   4.589908   0.000000
    20  H    4.028132   4.638952   4.720096   1.096054   0.000000
 Stoichiometry    C10H10
 Framework group  C2H[SGH(C10H10)]
 Deg. of freedom    19
 Full point group                 C2H
 Largest Abelian subgroup         C2H     NOp   4
 Largest concise Abelian subgroup C2      NOp   2
                         Standard orientation:                         
 ---------------------------------------------------------------------
 Center     Atomic     Atomic              Coordinates (Angstroms)
 Number     Number      Type              X           Y           Z
 ---------------------------------------------------------------------
    1          6             0       -0.242481    1.363239    0.000000
    2          6             0        1.062188    0.875975    0.000000
    3          6             0        1.298663   -0.493635    0.000000
    4          6             0        0.242481   -1.363239    0.000000
    5          6             0       -1.062188   -0.875975    0.000000
    6          1             0        1.905697    1.574054    0.000000
    7          1             0        2.327818   -0.870695    0.000000
    8          1             0       -1.905697   -1.574054    0.000000
    9          6             0        0.488821   -2.829499    0.000000
   10          6             0       -0.488821   -3.750345    0.000000
   11          1             0       -1.543443   -3.426710    0.000000
   12          1             0        1.545074   -3.130689    0.000000
   13          1             0       -0.284926   -4.801709    0.000000
   14          6             0       -0.488821    2.829499    0.000000
   15          1             0       -1.545074    3.130689    0.000000
   16          6             0        0.488821    3.750345    0.000000
   17          1             0        1.543443    3.426710    0.000000
   18          1             0        0.284926    4.801709    0.000000
   19          6             0       -1.298663    0.493635    0.000000
   20          1             0       -2.327818    0.870695    0.000000
 ---------------------------------------------------------------------
 Rotational constants (GHZ):      4.6773423      0.7267454      0.6290122
 Leave Link  202 at Sun Apr  7 14:58:47 2024, MaxMem=    6291456 cpu:       0.0
 (Enter /home/eric/data/opt/apps/gaussian/g03E.01/g03/l301.exe)
 Standard basis: STO-3G (5D, 7F)
 There are    25 symmetry adapted basis functions of AG  symmetry.
 There are     5 symmetry adapted basis functions of BG  symmetry.
 There are     5 symmetry adapted basis functions of AU  symmetry.
 There are    25 symmetry adapted basis functions of BU  symmetry.
 Integral buffers will be    131072 words long.
 Raffenetti 2 integral format.
 Two-electron integral symmetry is turned on.
    60 basis functions,   180 primitive gaussians,    60 cartesian basis functions
    35 alpha electrons       35 beta electrons
       nuclear repulsion energy       454.8898470338 Hartrees.
 IExCor= 402 DFT=T Ex=B+HF Corr=LYP ExCW=0 ScaHFX=  0.200000
 ScaDFX=  0.800000  0.720000  1.000000  0.810000
 IRadAn=      0 IRanWt=     -1 IRanGd=            0 ICorTp=0
 NAtoms=   20 NActive=   20 NUniq=   10 SFac= 3.00D+00 NAtFMM=   80 NAOKFM=F Big=F
 Leave Link  301 at Sun Apr  7 14:58:47 2024, MaxMem=    6291456 cpu:       0.0
 (Enter /home/eric/data/opt/apps/gaussian/g03E.01/g03/l302.exe)
 NPDir=0 NMtPBC=     1 NCelOv=     1 NCel=       1 NClECP=     1 NCelD=      1
         NCelK=      1 NCelE2=     1 NClLst=     1 CellRange=     0.0.
 One-electron integrals computed using PRISM.
 One-electron integral symmetry used in STVInt
 NBasis=    60 RedAO= T  NBF=    25     5     5    25
 NBsUse=    60 1.00D-06 NBFU=    25     5     5    25
 Precomputing XC quadrature grid using
 IXCGrd= 2 IRadAn=           0 IRanWt=          -1 IRanGd=           0.
 NRdTot=    1258 NPtTot=      159804 NUsed=      168691 NTot=      168723
 NSgBfM=    59    59    59    59.
 Leave Link  302 at Sun Apr  7 14:58:47 2024, MaxMem=    6291456 cpu:       0.3
 (Enter /home/eric/data/opt/apps/gaussian/g03E.01/g03/l303.exe)
 DipDrv:  MaxL=1.
 Leave Link  303 at Sun Apr  7 14:58:47 2024, MaxMem=    6291456 cpu:       0.0
 (Enter /home/eric/data/opt/apps/gaussian/g03E.01/g03/l401.exe)
 Initial guess read from the read-write file:
 Guess basis will be translated and rotated to current coordinates.
 Initial guess orbital symmetries:
       Occupied  (BU) (AG) (BU) (AG) (AG) (BU) (BU) (AG) (BU) (AG)
                 (AG) (BU) (AG) (BU) (BU) (AG) (AG) (BU) (AG) (AG)
                 (BU) (BU) (BU) (AG) (BU) (BU) (AG) (AU) (BU) (AG)
                 (AG) (BG) (AU) (BG) (BG)
       Virtual   (AU) (AU) (BG) (AU) (BG) (AG) (BU) (AG) (BU) (BU)
                 (AG) (BU) (AG) (BU) (AG) (AG) (BU) (AG) (BU) (BU)
                 (AG) (AG) (BU) (AG) (BU)
 The electronic state of the initial guess is 1-AG.
 Leave Link  401 at Sun Apr  7 14:58:47 2024, MaxMem=    6291456 cpu:       0.0
 (Enter /home/eric/data/opt/apps/gaussian/g03E.01/g03/l502.exe)
 Closed shell SCF:
 Requested convergence on RMS density matrix=1.00D-08 within 128 cycles.
 Requested convergence on MAX density matrix=1.00D-06.
 Requested convergence on             energy=1.00D-06.
 No special actions if energy rises.
 Using DIIS extrapolation, IDIIS=  1040.
 Integral symmetry usage will be decided dynamically.
       168690 words used for storage of precomputed grid.
 Keep R1 integrals in memory in canonical form, NReq=     3555743.
 IEnd=    199308 IEndB=    199308 NGot=   6291456 MDV=   4437070
 LenX=   4437070
 Symmetry not used in FoFDir.
 MinBra= 0 MaxBra= 1 Meth= 1.
 IRaf=       0 NMat=   1 IRICut=       1 DoRegI=T DoRafI=F ISym2E= 0 JSym2E=0.

 Cycle   1  Pass 1  IDiag  1:
 E= -382.295403371519    
 DIIS: error= 2.76D-04 at cycle   1 NSaved=   1.
 NSaved= 1 IEnMin= 1 EnMin= -382.295403371519     IErMin= 1 ErrMin= 2.76D-04
 ErrMax= 2.76D-04 EMaxC= 1.00D-01 BMatC= 6.23D-06 BMatP= 6.23D-06
 IDIUse=3 WtCom= 9.97D-01 WtEn= 2.76D-03
 Coeff-Com:  0.100D+01
 Coeff-En:   0.100D+01
 Coeff:      0.100D+01
 Gap=     0.201 Goal=   None    Shift=    0.000
 RMSDP=8.74D-05 MaxDP=9.13D-04              OVMax= 2.50D-04

 Cycle   2  Pass 1  IDiag  1:
 E= -382.295415087335     Delta-E=       -0.000011715817 Rises=F Damp=F
 DIIS: error= 3.91D-05 at cycle   2 NSaved=   2.
 NSaved= 2 IEnMin= 2 EnMin= -382.295415087335     IErMin= 2 ErrMin= 3.91D-05
 ErrMax= 3.91D-05 EMaxC= 1.00D-01 BMatC= 1.36D-07 BMatP= 6.23D-06
 IDIUse=1 WtCom= 1.00D+00 WtEn= 0.00D+00
 Coeff-Com: -0.304D-01 0.103D+01
 Coeff:     -0.304D-01 0.103D+01
 Gap=     0.201 Goal=   None    Shift=    0.000
 RMSDP=1.72D-05 MaxDP=2.13D-04 DE=-1.17D-05 OVMax= 1.70D-04

 Cycle   3  Pass 1  IDiag  1:
 E= -382.295415039714     Delta-E=        0.000000047621 Rises=F Damp=F
 DIIS: error= 5.35D-05 at cycle   3 NSaved=   3.
 NSaved= 3 IEnMin= 2 EnMin= -382.295415087335     IErMin= 2 ErrMin= 3.91D-05
 ErrMax= 5.35D-05 EMaxC= 1.00D-01 BMatC= 1.99D-07 BMatP= 1.36D-07
 IDIUse=1 WtCom= 1.00D+00 WtEn= 0.00D+00
 Coeff-Com: -0.367D-01 0.584D+00 0.453D+00
 Coeff:     -0.367D-01 0.584D+00 0.453D+00
 Gap=     0.201 Goal=   None    Shift=    0.000
 RMSDP=9.75D-06 MaxDP=1.55D-04 DE= 4.76D-08 OVMax= 1.19D-04

 Cycle   4  Pass 1  IDiag  1:
 E= -382.295415273472     Delta-E=       -0.000000233758 Rises=F Damp=F
 DIIS: error= 1.36D-05 at cycle   4 NSaved=   4.
 NSaved= 4 IEnMin= 4 EnMin= -382.295415273472     IErMin= 4 ErrMin= 1.36D-05
 ErrMax= 1.36D-05 EMaxC= 1.00D-01 BMatC= 7.15D-09 BMatP= 1.36D-07
 IDIUse=1 WtCom= 1.00D+00 WtEn= 0.00D+00
 Coeff-Com: -0.194D-01 0.289D+00 0.254D+00 0.477D+00
 Coeff:     -0.194D-01 0.289D+00 0.254D+00 0.477D+00
 Gap=     0.201 Goal=   None    Shift=    0.000
 RMSDP=2.03D-06 MaxDP=4.97D-05 DE=-2.34D-07 OVMax= 3.80D-05

 Cycle   5  Pass 1  IDiag  1:
 E= -382.295415281747     Delta-E=       -0.000000008275 Rises=F Damp=F
 DIIS: error= 3.45D-06 at cycle   5 NSaved=   5.
 NSaved= 5 IEnMin= 5 EnMin= -382.295415281747     IErMin= 5 ErrMin= 3.45D-06
 ErrMax= 3.45D-06 EMaxC= 1.00D-01 BMatC= 4.80D-10 BMatP= 7.15D-09
 IDIUse=1 WtCom= 1.00D+00 WtEn= 0.00D+00
 Coeff-Com: -0.353D-02 0.462D-01 0.508D-01 0.231D+00 0.675D+00
 Coeff:     -0.353D-02 0.462D-01 0.508D-01 0.231D+00 0.675D+00
 Gap=     0.201 Goal=   None    Shift=    0.000
 RMSDP=5.57D-07 MaxDP=1.16D-05 DE=-8.28D-09 OVMax= 1.13D-05

 Cycle   6  Pass 1  IDiag  1:
 E= -382.295415282315     Delta-E=       -0.000000000569 Rises=F Damp=F
 DIIS: error= 7.19D-07 at cycle   6 NSaved=   6.
 NSaved= 6 IEnMin= 6 EnMin= -382.295415282315     IErMin= 6 ErrMin= 7.19D-07
 ErrMax= 7.19D-07 EMaxC= 1.00D-01 BMatC= 3.08D-11 BMatP= 4.80D-10
 IDIUse=1 WtCom= 1.00D+00 WtEn= 0.00D+00
 Coeff-Com: -0.461D-03 0.402D-02 0.803D-02 0.747D-01 0.311D+00 0.602D+00
 Coeff:     -0.461D-03 0.402D-02 0.803D-02 0.747D-01 0.311D+00 0.602D+00
 Gap=     0.201 Goal=   None    Shift=    0.000
 RMSDP=1.49D-07 MaxDP=1.76D-06 DE=-5.69D-10 OVMax= 2.54D-06

 Cycle   7  Pass 1  IDiag  1:
 E= -382.295415282361     Delta-E=       -0.000000000046 Rises=F Damp=F
 DIIS: error= 1.01D-07 at cycle   7 NSaved=   7.
 NSaved= 7 IEnMin= 7 EnMin= -382.295415282361     IErMin= 7 ErrMin= 1.01D-07
 ErrMax= 1.01D-07 EMaxC= 1.00D-01 BMatC= 7.94D-13 BMatP= 3.08D-11
 IDIUse=1 WtCom= 1.00D+00 WtEn= 0.00D+00
 Coeff-Com:  0.270D-04-0.110D-02 0.566D-04 0.150D-01 0.755D-01 0.211D+00
 Coeff-Com:  0.700D+00
 Coeff:      0.270D-04-0.110D-02 0.566D-04 0.150D-01 0.755D-01 0.211D+00
 Coeff:      0.700D+00
 Gap=     0.201 Goal=   None    Shift=    0.000
 RMSDP=2.30D-08 MaxDP=3.28D-07 DE=-4.56D-11 OVMax= 1.77D-07

 Cycle   8  Pass 1  IDiag  1:
 E= -382.295415282362     Delta-E=       -0.000000000001 Rises=F Damp=F
 DIIS: error= 3.22D-08 at cycle   8 NSaved=   8.
 NSaved= 8 IEnMin= 8 EnMin= -382.295415282362     IErMin= 8 ErrMin= 3.22D-08
 ErrMax= 3.22D-08 EMaxC= 1.00D-01 BMatC= 7.34D-14 BMatP= 7.94D-13
 IDIUse=1 WtCom= 1.00D+00 WtEn= 0.00D+00
 Coeff-Com:  0.290D-04-0.659D-03-0.240D-03 0.472D-02 0.258D-01 0.812D-01
 Coeff-Com:  0.341D+00 0.548D+00
 Coeff:      0.290D-04-0.659D-03-0.240D-03 0.472D-02 0.258D-01 0.812D-01
 Coeff:      0.341D+00 0.548D+00
 Gap=     0.201 Goal=   None    Shift=    0.000
 RMSDP=6.43D-09 MaxDP=1.13D-07 DE=-1.36D-12 OVMax= 5.92D-08

 SCF Done:  E(RB+HF-LYP) =  -382.295415282     A.U. after    8 cycles
             Convg  =    0.6433D-08             -V/T =  2.0161
             S**2   =   0.0000
 KE= 3.762536703764D+02 PE=-1.794491481517D+03 EE= 5.810525488246D+02
 Leave Link  502 at Sun Apr  7 14:58:50 2024, MaxMem=    6291456 cpu:       2.2
 (Enter /home/eric/data/opt/apps/gaussian/g03E.01/g03/l701.exe)
 Compute integral first derivatives.
 ... and contract with generalized density number  0.
 Leave Link  701 at Sun Apr  7 14:58:50 2024, MaxMem=    6291456 cpu:       0.0
 (Enter /home/eric/data/opt/apps/gaussian/g03E.01/g03/l702.exe)
 L702 exits ... SP integral derivatives will be done elsewhere.
 Leave Link  702 at Sun Apr  7 14:58:50 2024, MaxMem=    6291456 cpu:       0.0
 (Enter /home/eric/data/opt/apps/gaussian/g03E.01/g03/l703.exe)
 Compute integral first derivatives, UseDBF=F.
 Integral derivatives from FoFDir, PRISM(SPDF).
 Petite list used in FoFDir.
 MinBra= 0 MaxBra= 1 Meth= 1.
 IRaf=       0 NMat=   1 IRICut=       1 DoRegI=T DoRafI=F ISym2E= 1 JSym2E=1.
 Leave Link  703 at Sun Apr  7 14:58:50 2024, MaxMem=    6291456 cpu:       0.7
 (Enter /home/eric/data/opt/apps/gaussian/g03E.01/g03/l716.exe)
 Dipole        =-1.15463195D-14-6.43929354D-14 4.91278221D-32
 ***** Axes restored to original set *****
 -------------------------------------------------------------------
 Center     Atomic                   Forces (Hartrees/Bohr)
 Number     Number              X              Y              Z
 -------------------------------------------------------------------
    1          6          -0.048794845    0.000000000    0.000509659
    2          6          -0.006699478    0.000000000    0.022835388
    3          6          -0.037231631    0.000000000    0.028390765
    4          6           0.048794845    0.000000000   -0.000509659
    5          6           0.006699478    0.000000000   -0.022835388
    6          1           0.000891204    0.000000000    0.001344062
    7          1           0.000687491    0.000000000    0.001339332
    8          1          -0.000891204    0.000000000   -0.001344062
    9          6           0.009752771    0.000000000    0.002625023
   10          6          -0.018760610    0.000000000   -0.013236647
   11          1           0.006118022    0.000000000    0.008015305
   12          1           0.001162306    0.000000000    0.001264721
   13          1           0.018679845    0.000000000    0.010019684
   14          6          -0.009752771    0.000000000   -0.002625023
   15          1          -0.001162306    0.000000000   -0.001264721
   16          6           0.018760610    0.000000000    0.013236647
   17          1          -0.006118022    0.000000000   -0.008015305
   18          1          -0.018679845    0.000000000   -0.010019684
   19          6           0.037231631    0.000000000   -0.028390765
   20          1          -0.000687491    0.000000000   -0.001339332
 -------------------------------------------------------------------
 Cartesian Forces:  Max     0.048794845 RMS     0.014523274
 Leave Link  716 at Sun Apr  7 14:58:50 2024, MaxMem=    6291456 cpu:       0.0
 (Enter /home/eric/data/opt/apps/gaussian/g03E.01/g03/l103.exe)

 GradGradGradGradGradGradGradGradGradGradGradGradGradGradGradGradGradGrad
 Berny optimization.
 Internal  Forces:  Max     0.058223170 RMS     0.012305948
 Search for a local minimum.
 Step number   2 out of a maximum of   5
 All quantities printed in internal units (Hartrees-Bohrs-Radians)
 Update second derivatives using D2CorX and points  1  2
 Trust test= 9.91D-01 RLast= 1.00D-02 DXMaxT set to 5.00D-02
     Eigenvalues ---    0.00953   0.00953   0.01897   0.01946   0.01946
     Eigenvalues ---    0.01955   0.02216   0.02216   0.02216   0.02322
     Eigenvalues ---    0.02385   0.02407   0.02428   0.02844   0.02844
     Eigenvalues ---    0.02844   0.02844   0.15895   0.16000   0.16000
     Eigenvalues ---    0.16000   0.16000   0.16000   0.16000   0.16000
     Eigenvalues ---    0.16000   0.16122   0.21985   0.22000   0.22989
     Eigenvalues ---    0.23041   0.24281   0.25000   0.27875   0.33293
     Eigenvalues ---    0.33328   0.33848   0.33871   0.33908   0.34096
     Eigenvalues ---    0.34129   0.34187   0.34250   0.35232   0.37230
     Eigenvalues ---    0.39033   0.42739   0.44622   0.47256   0.48701
     Eigenvalues ---    0.49620   0.55743   0.56553   0.631191000.00000
     Eigenvalues --- 1000.000001000.000001000.000001000.000001000.00000
     Eigenvalues --- 1000.000001000.000001000.000001000.000001000.00000
     Eigenvalues --- 1000.000001000.000001000.000001000.000001000.00000
     Eigenvalues --- 1000.000001000.000001000.000001000.000001000.00000
     Eigenvalues --- 1000.000001000.000001000.000001000.000001000.00000
     Eigenvalues --- 1000.000001000.000001000.000001000.000001000.00000
     Eigenvalues --- 1000.000001000.000001000.000001000.000001000.00000
 RFO step:  Lambda=-4.38708245D-03.
 Quartic linear search produced a step of  2.00000.
 Maximum step size (   0.050) exceeded in Quadratic search.
    -- Step size scaled by   0.396
 Iteration  1 RMS(Cart)=  0.01239009 RMS(Int)=  0.00008013
 Iteration  2 RMS(Cart)=  0.00009126 RMS(Int)=  0.00000000
 Iteration  3 RMS(Cart)=  0.00000000 RMS(Int)=  0.00000000
 Variable       Old X    -DE/DX   Delta X   Delta X   Delta X     New X
                                 (Linear)    (Quad)   (Total)
    R1        2.63180   0.03106   0.00427   0.00763   0.01190   2.64371
    R2        2.80966   0.01902   0.00362  -0.00042   0.00321   2.81287
    R3        2.58536   0.05822   0.00731   0.01597   0.02327   2.60863
    R4        2.62648   0.01858   0.00255   0.00441   0.00695   2.63344
    R5        2.06908  -0.00010  -0.00005   0.00049   0.00044   2.06952
    R6        2.58536   0.05822   0.00731   0.01597   0.02327   2.60863
    R7        2.07124   0.00134   0.00024   0.00021   0.00045   2.07169
[...]
 ! D33   D(4,9,10,11)            0.0            -DE/DX =    0.0                 !
 ! D34   D(4,9,10,13)          180.0            -DE/DX =    0.0                 !
 ! D35   D(12,9,10,11)         180.0            -DE/DX =    0.0                 !
 ! D36   D(12,9,10,13)           0.0            -DE/DX =    0.0                 !
 ! D37   D(1,14,16,17)           0.0            -DE/DX =    0.0                 !
 ! D38   D(1,14,16,18)         180.0            -DE/DX =    0.0                 !
 ! D39   D(15,14,16,17)        180.0            -DE/DX =    0.0                 !
 ! D40   D(15,14,16,18)          0.0            -DE/DX =    0.0                 !
 --------------------------------------------------------------------------------
 GradGradGradGradGradGradGradGradGradGradGradGradGradGradGradGradGradGrad

 Largest change from initial coordinates is atom   18       0.022 Angstoms.
 Leave Link  103 at Sun Apr  7 14:59:01 2024, MaxMem=    6291456 cpu:       0.0
 (Enter /home/eric/data/opt/apps/gaussian/g03E.01/g03/l202.exe)
                          Input orientation:                          
 ---------------------------------------------------------------------
 Center     Atomic     Atomic              Coordinates (Angstroms)
 Number     Number      Type              X           Y           Z
 ---------------------------------------------------------------------
    1          6             0       -0.029875    0.000000   -0.000495
    2          6             0       -0.017031    0.000000    1.412137
    3          6             0        1.195791    0.000000    2.112623
    4          6             0        2.411304    0.000000    1.406218
    5          6             0        2.398460    0.000000   -0.006414
    6          1             0       -0.966242    0.000000    1.959889
    7          1             0        1.194158    0.000000    3.209917
    8          1             0        3.347671    0.000000   -0.554167
    9          6             0        3.704362    0.000000    2.156392
   10          6             0        4.910272    0.000000    1.560789
   11          1             0        4.960689    0.000000    0.462976
   12          1             0        3.612504    0.000000    3.251892
   13          1             0        5.838384    0.000000    2.122356
   14          6             0       -1.322933    0.000000   -0.750669
   15          1             0       -1.231075    0.000000   -1.846170
   16          6             0       -2.528843    0.000000   -0.155066
   17          1             0       -2.579260    0.000000    0.942747
   18          1             0       -3.456956    0.000000   -0.716633
   19          6             0        1.185638    0.000000   -0.706900
   20          1             0        1.187271    0.000000   -1.804195
 ---------------------------------------------------------------------
                    Distance matrix (angstroms):
                    1          2          3          4          5
     1  C    0.000000
     2  C    1.412690   0.000000
     3  C    2.442852   1.400577   0.000000
     4  C    2.817481   2.428342   1.405874   0.000000
     5  C    2.428342   2.801228   2.436540   1.412690   0.000000
     6  H    2.172531   1.095918   2.167421   3.422627   3.897123
     7  H    3.435841   2.167716   1.097296   2.175954   3.434404
     8  H    3.422627   3.897123   3.426712   2.172531   1.095918
     9  C    4.312388   3.795086   2.508953   1.494911   2.526481
    10  C    5.180990   4.929544   3.755248   2.503743   2.960629
    11  H    5.012039   5.067405   4.110449   2.718284   2.604870
    12  H    4.883129   4.069180   2.671786   2.202134   3.477134
    13  H    6.240430   5.898330   4.642604   3.501104   4.045336
    14  C    1.494911   2.526481   3.813451   4.312388   3.795086
    15  H    2.202134   3.477134   4.643460   4.883129   4.069180
    16  C    2.503743   2.960629   4.360654   5.180990   4.929544
    17  H    2.718284   2.604870   3.952166   5.012039   5.067405
    18  H    3.501104   4.045336   5.445433   6.240430   5.898330
    19  C    1.405874   2.436540   2.819541   2.442852   1.400577
    20  H    2.175954   3.434404   3.916827   3.435841   2.167716
                    6          7          8          9         10
     6  H    0.000000
     7  H    2.495977   0.000000
     8  H    4.993028   4.336582   0.000000
     9  C    4.674736   2.722322   2.733926   0.000000
    10  C    5.890051   4.065603   2.629592   1.344976   0.000000
    11  H    6.113040   4.661807   1.906936   2.108557   1.098970
    12  H    4.757540   2.418710   3.815262   1.099345   2.131674
    13  H    6.806566   4.769867   3.656149   2.134294   1.084781
    14  C    2.733926   4.692759   4.674736   5.807296   6.647983
    15  H    3.815262   5.607653   4.757540   6.354450   7.023069
    16  C    2.629592   5.018351   5.890051   6.647983   7.634434
    17  H    1.906936   4.402130   6.113040   6.399753   7.514989
    18  H    3.656149   6.086925   6.806566   7.716135   8.671628
    19  C    3.426712   3.916827   2.167421   3.813451   4.360654
    20  H    4.336582   5.014117   2.495977   4.692759   5.018351
                   11         12         13         14         15
    11  H    0.000000
    12  H    3.097686   0.000000
    13  H    1.877203   2.496076   0.000000
    14  C    6.399753   6.354450   7.716135   0.000000
    15  H    6.608335   7.032105   8.107185   1.099345   0.000000
    16  C    7.514989   7.023069   8.671628   1.344976   2.131674
    17  H    7.555197   6.608335   8.499895   2.108557   3.097686
    18  H    8.499895   8.107185   9.719218   2.134294   2.496076
    19  C    3.952166   4.643460   5.445433   2.508953   2.671786
    20  H    4.402130   5.607653   6.086925   2.722322   2.418710
                   16         17         18         19         20
    16  C    0.000000
    17  H    1.098970   0.000000
    18  H    1.084781   1.877203   0.000000
    19  C    3.755248   4.110449   4.642604   0.000000
    20  H    4.065603   4.661807   4.769867   1.097296   0.000000
 Stoichiometry    C10H10
 Framework group  C2H[SGH(C10H10)]
 Deg. of freedom    19
 Full point group                 C2H
 Largest Abelian subgroup         C2H     NOp   4
 Largest concise Abelian subgroup C2      NOp   2
                         Standard orientation:                         
 ---------------------------------------------------------------------
 Center     Atomic     Atomic              Coordinates (Angstroms)
 Number     Number      Type              X           Y           Z
 ---------------------------------------------------------------------
    1          6             0       -0.235082    1.388987    0.000000
    2          6             0        1.084947    0.885782    0.000000
    3          6             0        1.320039   -0.494924    0.000000
    4          6             0        0.235082   -1.388987    0.000000
    5          6             0       -1.084947   -0.885782    0.000000
    6          1             0        1.928559    1.585321    0.000000
    7          1             0        2.349440   -0.874915    0.000000
    8          1             0       -1.928559   -1.585321    0.000000
    9          6             0        0.488864   -2.862199    0.000000
   10          6             0       -0.488864   -3.785783    0.000000
   11          1             0       -1.535712   -3.451353    0.000000
   12          1             0        1.547953   -3.156971    0.000000
   13          1             0       -0.285033   -4.851243    0.000000
   14          6             0       -0.488864    2.862199    0.000000
   15          1             0       -1.547953    3.156971    0.000000
   16          6             0        0.488864    3.785783    0.000000
   17          1             0        1.535712    3.451353    0.000000
   18          1             0        0.285033    4.851243    0.000000
   19          6             0       -1.320039    0.494924    0.000000
   20          1             0       -2.349440    0.874915    0.000000
 ---------------------------------------------------------------------
 Rotational constants (GHZ):      4.5607672      0.7116306      0.6155798
 Leave Link  202 at Sun Apr  7 14:59:01 2024, MaxMem=    6291456 cpu:       0.0
 (Enter /home/eric/data/opt/apps/gaussian/g03E.01/g03/l601.exe)
 Copying SCF densities to generalized density rwf, ISCF=0 IROHF=0.

 **********************************************************************

            Population analysis using the SCF density.

 **********************************************************************

 Orbital symmetries:
       Occupied  (BU) (AG) (BU) (AG) (AG) (BU) (BU) (AG) (BU) (AG)
                 (AG) (BU) (AG) (BU) (BU) (AG) (AG) (BU) (AG) (AG)
                 (BU) (BU) (BU) (AG) (BU) (BU) (AG) (AU) (BU) (AG)
                 (AG) (BG) (AU) (BG) (BG)
       Virtual   (AU) (AU) (BG) (AU) (BG) (AG) (BU) (AG) (BU) (BU)
                 (AG) (BU) (AG) (BU) (AG) (AG) (BU) (AG) (BU) (BU)
                 (AG) (AG) (BU) (AG) (BU)
 The electronic state is 1-AG.
 Alpha  occ. eigenvalues --  -10.01894 -10.01888 -10.00700 -10.00696 -10.00611
 Alpha  occ. eigenvalues --  -10.00610 -10.00567 -10.00557  -9.99032  -9.99032
 Alpha  occ. eigenvalues --   -0.81463  -0.75746  -0.71821  -0.70305  -0.66565
 Alpha  occ. eigenvalues --   -0.58995  -0.56134  -0.53244  -0.51031  -0.46029
 Alpha  occ. eigenvalues --   -0.44201  -0.41306  -0.39890  -0.39626  -0.37580
 Alpha  occ. eigenvalues --   -0.35090  -0.34801  -0.32830  -0.31124  -0.29413
 Alpha  occ. eigenvalues --   -0.28803  -0.26496  -0.21136  -0.19653  -0.15293
 Alpha virt. eigenvalues --    0.04056   0.08947   0.11120   0.18389   0.27691
 Alpha virt. eigenvalues --    0.33828   0.33885   0.37891   0.38496   0.40865
 Alpha virt. eigenvalues --    0.41033   0.42606   0.44763   0.47245   0.49305
 Alpha virt. eigenvalues --    0.52990   0.56068   0.58558   0.60407   0.62627
 Alpha virt. eigenvalues --    0.65916   0.67511   0.72618   0.79094   0.80744
          Condensed to atoms (all electrons):
              1          2          3          4          5          6
     1  C    4.775984   0.493630  -0.027889  -0.011392  -0.029286  -0.024940
     2  C    0.493630   4.812027   0.507969  -0.029286  -0.011364   0.389072
     3  C   -0.027889   0.507969   4.809238   0.495361  -0.029802  -0.024982
     4  C   -0.011392  -0.029286   0.495361   4.775984   0.493630   0.001406
     5  C   -0.029286  -0.011364  -0.029802   0.493630   4.812027   0.000039
     6  H   -0.024940   0.389072  -0.024982   0.001406   0.000039   0.587482
     7  H    0.001364  -0.025033   0.388926  -0.024941   0.001348  -0.003670
     8  H    0.001406   0.000039   0.001354  -0.024940   0.389072   0.000002
     9  C    0.000022   0.000904  -0.029260   0.411287  -0.026114  -0.000017
    10  C    0.000000  -0.000008   0.000717  -0.025974  -0.006655   0.000000
    11  H   -0.000001  -0.000001   0.000026  -0.004873  -0.002115   0.000000
    12  H   -0.000001   0.000017  -0.003688  -0.025631   0.001108  -0.000001
    13  H    0.000000   0.000000  -0.000016   0.001379   0.000051   0.000000
    14  C    0.411287  -0.026114   0.000824   0.000022   0.000904  -0.003729
    15  H   -0.025631   0.001108  -0.000017  -0.000001   0.000017   0.000027
    16  C   -0.025974  -0.006655   0.000037   0.000000  -0.000008  -0.002188
    17  H   -0.004873  -0.002115  -0.000016  -0.000001  -0.000001   0.001139
    18  H    0.001379   0.000051   0.000000   0.000000   0.000000  -0.000013
    19  C    0.495361  -0.029802  -0.010525  -0.027889   0.507969   0.001354
    20  H   -0.024941   0.001348   0.000031   0.001364  -0.025033  -0.000034
              7          8          9         10         11         12
     1  C    0.001364   0.001406   0.000022   0.000000  -0.000001  -0.000001
     2  C   -0.025033   0.000039   0.000904  -0.000008  -0.000001   0.000017
     3  C    0.388926   0.001354  -0.029260   0.000717   0.000026  -0.003688
     4  C   -0.024941  -0.024940   0.411287  -0.025974  -0.004873  -0.025631
     5  C    0.001348   0.389072  -0.026114  -0.006655  -0.002115   0.001108
     6  H   -0.003670   0.000002  -0.000017   0.000000   0.000000  -0.000001
     7  H    0.585569  -0.000034  -0.003906   0.000031   0.000001   0.000991
     8  H   -0.000034   0.587482  -0.003729  -0.002188   0.001139   0.000027
     9  C   -0.003906  -0.003729   4.802198   0.586621  -0.026084   0.386317
    10  C    0.000031  -0.002188   0.586621   4.853543   0.386347  -0.026087
    11  H    0.000001   0.001139  -0.026084   0.386347   0.590104   0.002064
    12  H    0.000991   0.000027   0.386317  -0.026087   0.002064   0.592737
    13  H   -0.000002  -0.000013  -0.023542   0.390794  -0.022408  -0.004264
    14  C   -0.000016  -0.000017   0.000000   0.000000   0.000000   0.000000
    15  H    0.000000  -0.000001   0.000000   0.000000   0.000000   0.000000
    16  C    0.000000   0.000000   0.000000   0.000000   0.000000   0.000000
    17  H    0.000005   0.000000   0.000000   0.000000   0.000000   0.000000
    18  H    0.000000   0.000000   0.000000   0.000000   0.000000   0.000000
    19  C    0.000031  -0.024982   0.000824   0.000037  -0.000016  -0.000017
    20  H    0.000002  -0.003670  -0.000016   0.000000   0.000005   0.000000
             13         14         15         16         17         18
     1  C    0.000000   0.411287  -0.025631  -0.025974  -0.004873   0.001379
     2  C    0.000000  -0.026114   0.001108  -0.006655  -0.002115   0.000051
     3  C   -0.000016   0.000824  -0.000017   0.000037  -0.000016   0.000000
     4  C    0.001379   0.000022  -0.000001   0.000000  -0.000001   0.000000
     5  C    0.000051   0.000904   0.000017  -0.000008  -0.000001   0.000000
     6  H    0.000000  -0.003729   0.000027  -0.002188   0.001139  -0.000013
     7  H   -0.000002  -0.000016   0.000000   0.000000   0.000005   0.000000
     8  H   -0.000013  -0.000017  -0.000001   0.000000   0.000000   0.000000
     9  C   -0.023542   0.000000   0.000000   0.000000   0.000000   0.000000
    10  C    0.390794   0.000000   0.000000   0.000000   0.000000   0.000000
    11  H   -0.022408   0.000000   0.000000   0.000000   0.000000   0.000000
    12  H   -0.004264   0.000000   0.000000   0.000000   0.000000   0.000000
    13  H    0.576375   0.000000   0.000000   0.000000   0.000000   0.000000
    14  C    0.000000   4.802198   0.386317   0.586621  -0.026084  -0.023542
    15  H    0.000000   0.386317   0.592737  -0.026087   0.002064  -0.004264
    16  C    0.000000   0.586621  -0.026087   4.853543   0.386347   0.390794
    17  H    0.000000  -0.026084   0.002064   0.386347   0.590104  -0.022408
    18  H    0.000000  -0.023542  -0.004264   0.390794  -0.022408   0.576375
    19  C    0.000000  -0.029260  -0.003688   0.000717   0.000026  -0.000016
    20  H    0.000000  -0.003906   0.000991   0.000031   0.000001  -0.000002
             19         20
     1  C    0.495361  -0.024941
     2  C   -0.029802   0.001348
     3  C   -0.010525   0.000031
     4  C   -0.027889   0.001364
     5  C    0.507969  -0.025033
     6  H    0.001354  -0.000034
     7  H    0.000031   0.000002
     8  H   -0.024982  -0.003670
     9  C    0.000824  -0.000016
    10  C    0.000037   0.000000
    11  H   -0.000016   0.000005
    12  H   -0.000017   0.000000
    13  H    0.000000   0.000000
    14  C   -0.029260  -0.003906
    15  H   -0.003688   0.000991
    16  C    0.000717   0.000031
    17  H    0.000026   0.000001
    18  H   -0.000016  -0.000002
    19  C    4.809238   0.388926
    20  H    0.388926   0.585569
 Mulliken atomic charges:
              1
     1  C   -0.005506
     2  C   -0.075788
     3  C   -0.078287
     4  C   -0.005506
     5  C   -0.075788
     6  H    0.079051
     7  H    0.079332
     8  H    0.079051
     9  C   -0.075505
    10  C   -0.157179
    11  H    0.075810
    12  H    0.076427
    13  H    0.081645
    14  C   -0.075505
    15  H    0.076427
    16  C   -0.157179
    17  H    0.075810
    18  H    0.081645
    19  C   -0.078287
    20  H    0.079332
 Sum of Mulliken charges=   0.00000
 Atomic charges with hydrogens summed into heavy atoms:
              1
     1  C   -0.005506
     2  C    0.003263
     3  C    0.001045
     4  C   -0.005506
     5  C    0.003263
     6  H    0.000000
     7  H    0.000000
     8  H    0.000000
     9  C    0.000921
    10  C    0.000277
    11  H    0.000000
    12  H    0.000000
    13  H    0.000000
    14  C    0.000921
    15  H    0.000000
    16  C    0.000277
    17  H    0.000000
    18  H    0.000000
    19  C    0.001045
    20  H    0.000000
 Sum of Mulliken charges=   0.00000
 Electronic spatial extent (au):  <R**2>=  1807.2785
 Charge=     0.0000 electrons
 Dipole moment (field-independent basis, Debye):
    X=     0.0000    Y=     0.0000    Z=     0.0000  Tot=     0.0000
 Quadrupole moment (field-independent basis, Debye-Ang):
   XX=   -50.2519   YY=   -51.2319   ZZ=   -58.5775
   XY=    -0.1317   XZ=     0.0000   YZ=     0.0000
 Traceless Quadrupole moment (field-independent basis, Debye-Ang):
   XX=     3.1018   YY=     2.1219   ZZ=    -5.2237
   XY=    -0.1317   XZ=     0.0000   YZ=     0.0000
 Octapole moment (field-independent basis, Debye-Ang**2):
  XXX=     0.0000  YYY=     0.0000  ZZZ=     0.0000  XYY=     0.0000
  XXY=     0.0000  XXZ=     0.0000  XZZ=     0.0000  YZZ=     0.0000
  YYZ=     0.0000  XYZ=     0.0000
 Hexadecapole moment (field-independent basis, Debye-Ang**3):
 XXXX=  -335.2057 YYYY= -1797.3165 ZZZZ=   -47.5508 XXXY=   -28.1872
 XXXZ=     0.0000 YYYX=   -30.3274 YYYZ=     0.0000 ZZZX=     0.0000
 ZZZY=     0.0000 XXYY=  -360.1881 XXZZ=   -73.0338 YYZZ=  -353.7214
 XXYZ=     0.0000 YYXZ=     0.0000 ZZXY=    -9.0689
 N-N= 4.500797822045D+02 E-N=-1.784836927220D+03  KE= 3.759826135822D+02
 Symmetry AG   KE= 1.814644274824D+02
 Symmetry BG   KE= 7.825291742140D+00
 Symmetry AU   KE= 4.692613905855D+00
 Symmetry BU   KE= 1.820002804518D+02
 No NMR shielding tensors so no spin-rotation constants.
 Leave Link  601 at Sun Apr  7 14:59:01 2024, MaxMem=    6291456 cpu:       0.0
 (Enter /home/eric/data/opt/apps/gaussian/g03E.01/g03/l9999.exe)
 Final structure in terms of initial Z-matrix:
 C
 C,1,B1
 C,2,B2,1,A1
 C,3,B3,2,A2,1,D1,0
 C,4,B4,3,A3,2,D2,0
 H,2,B5,1,A4,5,D3,0
 H,3,B6,2,A5,1,D4,0
 H,5,B7,4,A6,3,D5,0
 C,4,B8,3,A7,2,D6,0
 C,9,B9,4,A8,3,D7,0
 H,10,B10,9,A9,4,D8,0
 H,9,B11,4,A10,3,D9,0
 H,10,B12,9,A11,4,D10,0
 C,1,B13,2,A12,3,D11,0
 H,14,B14,1,A13,2,D12,0
 C,14,B15,1,A14,2,D13,0
 H,16,B16,14,A15,1,D14,0
 H,16,B17,14,A16,1,D15,0
 C,5,B18,4,A17,3,D16,0
 H,19,B19,5,A18,4,D17,0
      Variables:
 B1=1.41269003
 B2=1.4005774
 B3=1.40587388
 B4=1.41269003
 B5=1.0959176
 B6=1.09729575
 B7=1.0959176
 B8=1.49491083
 B9=1.34497629
 B10=1.09896962
 B11=1.09934513
 B12=1.08478149
 B13=1.49491083
 B14=1.09934513
 B15=1.34497629
 B16=1.09896962
 B17=1.08478149
 B18=1.4005774
 B19=1.09729575
 A1=120.5302963
 A2=119.82731956
 A3=119.64238414
 A4=119.46659264
 A5=119.92407961
 A6=119.46659264
 A7=119.71627354
 A8=123.59469806
 A9=118.91439784
 A10=115.3273418
 A11=122.53849021
 A12=120.64134232
 A13=115.3273418
 A14=123.59469806
 A15=118.91439784
 A16=122.53849021
 A17=120.5302963
 A18=119.92407961
 D1=0.
 D2=0.
 D3=180.
 D4=180.
 D5=180.
 D6=180.
 D7=180.
 D8=0.
 D9=0.
 D10=180.
 D11=180.
 D12=180.
 D13=0.
 D14=0.
 D15=180.
 D16=0.
 D17=180.


 ALL OUR THINKING ABOUT NATURE MUST NECESSARILY MOVE IN CIRCLES OR SPIRALS;
 FOR WE CAN ONLY UNDERSTAND NATURE IF WE THINK ABOUT HER, AND WE CAN ONLY
 THINK BECAUSE OUR BRAIN IS BUILT IN ACCORDANCE WITH NATURE'S LAWS.

                                             -- TIMOTHY FERRIS, "GALAXIES"
 Error termination request processed by link 9999.
 Error termination via Lnk1e in /home/eric/data/opt/apps/gaussian/g03E.01/g03/l9999.exe at Sun Apr  7 14:59:02 2024.
 Job cpu time:  0 days  0 hours  0 minutes 18.3 seconds.
 File lengths (MBytes):  RWF=     21 Int=      0 D2E=      0 Chk=     10 Scr=      1
