
Running Job 1 of 3 HSO2F_TS.inp
qchem HSO2F_TS.inp_39696.0 /Users/eremin/Documents/Q-Chem/scratch/qchem39696/ 0
/Applications/Q-Chem/5.2/exe/qcprog.exe_s HSO2F_TS.inp_39696.0 /Users/eremin/Documents/Q-Chem/scratch/qchem39696/
                  Welcome to Q-Chem
     A Quantum Leap Into The Future Of Chemistry


 Q-Chem 5.2, Q-Chem, Inc., Pleasanton, CA (2019)

 Yihan Shao,  Zhengting Gan,  E. Epifanovsky,  A. T. B. Gilbert,  M. Wormit,  
 J. Kussmann,  A. W. Lange,  A. Behn,  Jia Deng,  Xintian Feng,  D. Ghosh,  
 M. Goldey,  P. R. Horn,  L. D. Jacobson,  I. Kaliman,  T. Kus,  A. Landau,  
 Jie Liu,  E. I. Proynov,  R. M. Richard,  R. P. Steele,  E. J. Sundstrom,  
 H. L. Woodcock III,  P. M. Zimmerman,  D. Zuev,  B. Albrecht,  E. Alguire,  
 S. A. Baeppler,  D. Barton,  Z. Benda,  Y. A. Bernard,  E. J. Berquist,  
 K. B. Bravaya,  H. Burton,  D. Casanova,  Chun-Min Chang,  Yunqing Chen,  
 A. Chien,  K. D. Closser,  M. P. Coons,  S. Coriani,  S. Dasgupta,  
 A. L. Dempwolff,  M. Diedenhofen,  Hainam Do,  R. G. Edgar,  Po-Tung Fang,  
 S. Faraji,  S. Fatehi,  Qingguo Feng,  K. D. Fenk,  J. Fosso-Tande,  
 J. Gayvert,  Qinghui Ge,  A. Ghysels,  G. Gidofalvi,  J. Gomes,  
 J. Gonthier,  A. Gunina,  D. Hait,  M. W. D. Hanson-Heine,  
 P. H. P. Harbach,  A. W. Hauser,  M. F. Herbst,  J. E. Herr,  
 E. G. Hohenstein,  Z. C. Holden,  Kerwin Hui,  B. C. Huynh,  T.-C. Jagau,  
 Hyunjun Ji,  B. Kaduk,  K. Khistyaev,  Jaehoon Kim,  P. Klunzinger,  K. Koh,  
 D. Kosenkov,  L. Koulias,  T. Kowalczyk,  C. M. Krauter,  A. Kunitsa,  
 Ka Un Lao,  A. Laurent,  K. V. Lawler,  Joonho Lee,  D. Lefrancois,  
 S. Lehtola,  D. S. Levine,  Yi-Pei Li,  You-Sheng Lin,  Fenglai Liu,  
 E. Livshits,  A. Luenser,  P. Manohar,  E. Mansoor,  S. F. Manzer,  
 Shan-Ping Mao,  Yuezhi Mao,  N. Mardirossian,  A. V. Marenich,  
 T. Markovich,  L. A. Martinez-Martinez,  S. A. Maurer,  N. J. Mayhall,  
 S. C. McKenzie,  J.-M. Mewes,  P. Morgante,  A. F. Morrison,  
 J. W. Mullinax,  K. Nanda,  T. S. Nguyen-Beck,  R. Olivares-Amaya,  
 J. A. Parkhill,  Zheng Pei,  T. M. Perrine,  F. Plasser,  P. Pokhilko,  
 S. Prager,  A. Prociuk,  E. Ramos,  D. R. Rehn,  F. Rob,  M. Scheurer,  
 M. Schneider,  N. Sergueev,  S. M. Sharada,  S. Sharma,  D. W. Small,  
 T. Stauch,  T. Stein,  Yu-Chuan Su,  A. J. W. Thom,  A. Tkatchenko,  
 T. Tsuchimochi,  N. M. Tubman,  L. Vogt,  M. L. Vidal,  O. Vydrov,  
 M. A. Watson,  J. Wenzel,  M. de Wergifosse,  T. A. Wesolowski,  A. White,  
 J. Witte,  A. Yamada,  Jun Yang,  K. Yao,  S. Yeganeh,  S. R. Yost,  
 Zhi-Qiang You,  A. Zech,  Igor Ying Zhang,  Xing Zhang,  Yan Zhao,  
 Ying Zhu,  B. R. Brooks,  G. K. L. Chan,  C. J. Cramer,  M. S. Gordon,  
 W. J. Hehre,  A. Klamt,  M. W. Schmidt,  C. D. Sherrill,  D. G. Truhlar,  
 A. Aspuru-Guzik,  R. Baer,  A. T. Bell,  N. A. Besley,  Jeng-Da Chai,  
 A. E. DePrince, III,  R. A. DiStasio Jr.,  A. Dreuw,  B. D. Dunietz,  
 T. R. Furlani,  Chao-Ping Hsu,  Yousung Jung,  Jing Kong,  D. S. Lambrecht,  
 WanZhen Liang,  C. Ochsenfeld,  V. A. Rassolov,  L. V. Slipchenko,  
 J. E. Subotnik,  T. Van Voorhis,  J. M. Herbert,  A. I. Krylov,  
 P. M. W. Gill,  M. Head-Gordon

 Contributors to earlier versions of Q-Chem not listed above: 
 R. D. Adamson,  B. Austin,  J. Baker,  G. J. O. Beran,  K. Brandhorst,  
 S. T. Brown,  E. F. C. Byrd,  A. K. Chakraborty,  C.-L. Cheng,  
 Siu Hung Chien,  D. M. Chipman,  D. L. Crittenden,  H. Dachsel,  
 R. J. Doerksen,  A. D. Dutoi,  L. Fusti-Molnar,  W. A. Goddard III,  
 A. Golubeva-Zadorozhnaya,  S. R. Gwaltney,  G. Hawkins,  A. Heyden,  
 S. Hirata,  G. Kedziora,  F. J. Keil,  C. Kelley,  Jihan Kim,  R. A. King,  
 R. Z. Khaliullin,  P. P. Korambath,  W. Kurlancheek,  A. M. Lee,  M. S. Lee,  
 S. V. Levchenko,  Ching Yeh Lin,  D. Liotard,  R. C. Lochan,  I. Lotan,  
 P. E. Maslen,  N. Nair,  D. P. O'Neill,  D. Neuhauser,  E. Neuscamman,  
 C. M. Oana,  R. Olson,  B. Peters,  R. Peverati,  P. A. Pieniazek,  
 Y. M. Rhee,  J. Ritchie,  M. A. Rohrdanz,  E. Rosta,  N. J. Russ,  
 H. F. Schaefer III,  N. E. Schultz,  N. Shenvi,  A. C. Simmonett,  A. Sodt,  
 D. Stuck,  K. S. Thanthiriwatte,  V. Vanovschi,  Tao Wang,  A. Warshel,  
 C. F. Williams,  Q. Wu,  X. Xu,  W. Zhang

 Please cite Q-Chem as follows:
 Y. Shao et al., Mol. Phys. 113, 184-215 (2015)
 DOI: 10.1080/00268976.2014.952696

 Q-Chem 5.2.1 for Mac (Intel) OS X

 Parts of Q-Chem use Armadillo 8.300.2 (Tropical Shenanigans).
 http://arma.sourceforge.net/

 Q-Chem begins on Thu Mar 26 16:41:11 2020  

Host: 
0

     Scratch files written to /Users/eremin/Documents/Q-Chem/scratch/qchem39696//
 Jul1719 |scratch|qcdevops|jenkins|workspace|build_RNUM 6013   
Processing $rem in /Applications/Q-Chem/5.2/config/preferences:
	 MEM_TOTAL  16000 
NAlpha2: 42
NElect   42
Mult     1
Symmetry turned off for PCM/SM12/SMD calculation


!!********************************************.
!!******************Warning*******************.
!!Desired Analytical derivatives not available.
!!Finite difference job might take a long time.
!!********************************************.
!!********************************************.


 2-order derivative to be evaluated numerically with 1-order analytical derivatives

Checking the input file for inconsistencies... 	...done.

--------------------------------------------------------------
User input:
--------------------------------------------------------------
$molecule
0 1
S   -0.3638310   -0.1825380   -0.4506540
O    0.7843910   -1.1370370   -0.0916650
O   -1.4664540   -0.2735650    0.4679830
F    1.2756830    1.0026980    0.2135470
H    1.4833690   -0.2348150    0.1803410
$end

$rem
BASIS  =  6-311+G**
GUI  =  2
JOB_TYPE  =  Frequency
METHOD  =  PBE0
SCF_CONVERGENCE  =  8
SOLVENT_METHOD  =  SMD
$end


$smx
SOLVENT  water
$end

--------------------------------------------------------------
 ----------------------------------------------------------------
             Standard Nuclear Orientation (Angstroms)
    I     Atom           X                Y                Z
 ----------------------------------------------------------------
    1      S      -0.3638310000    -0.1825380000    -0.4506540000
    2      O       0.7843910000    -1.1370370000    -0.0916650000
    3      O      -1.4664540000    -0.2735650000     0.4679830000
    4      F       1.2756830000     1.0026980000     0.2135470000
    5      H       1.4833690000    -0.2348150000     0.1803410000
 ----------------------------------------------------------------
 Nuclear Repulsion Energy =         183.58895218 hartrees
 There are       21 alpha and       21 beta electrons
 Requested basis set is 6-311+G(d,p)
 There are 35 shells and 102 basis functions

 Total QAlloc Memory Limit  16000 MB
 Mega-Array Size       188 MB
 MEM_STATIC part       192 MB
 
 Citation of the SMD model:
 Marenich, A.V.; Cramer, C.J.; Truhlar, D.G.
 J. Phys. Chem. B 2009, 113, 6378-6396.
 iSolventCode=           1
 Solvent: water                                                           
 
 vradii
            1           2           3           4           5
    1   2.4900000   1.5200000   1.5200000   1.7300000   1.2000000
 Changing PCM_VDW_RADII to SMD_RADIUS
 Discretize the solute cavity surface with Lebedev spheres
	Using 110 Lebedev grid points for each H atom
	Using 194 Lebedev grid points for other atoms
	Atomic van der Waals radii will be scaled by 1.20
 Remove points where switching function is < 1.0e-08
 Keep 494 surface tesserae and discard 392 interior tesserae
 Molecular Surface Area = 93.758 Angst**2

                       Distance Matrix (Angstroms)
             S (  1)   O (  2)   O (  3)   F (  4)
   O (  2)  1.535694
   O (  3)  1.438039  2.474893
   F (  4)  2.129308  2.216526  3.035276
   H (  5)  1.952700  1.173270  2.964067  1.255259
 
 A cutoff of  1.0D-11 yielded    603 shell pairs
 There are      5243 function pairs (      5671 Cartesian)
 Smallest overlap matrix eigenvalue = 1.40E-03
 Guess from superposition of atomic densities
 Warning:  Energy on first SCF cycle will be non-variational
 SAD guess density has 42.000000 electrons

 -----------------------------------------------------------------------
  General SCF calculation program by
  Eric Jon Sundstrom, Paul Horn, Yuezhi Mao, Dmitri Zuev, Alec White,
  David Stuck, Shaama M.S., Shane Yost, Joonho Lee, David Small,
  Daniel Levine, Susi Lehtola, Hugh Burton, Evgeny Epifanovsky,
  Bang C. Huynh
 -----------------------------------------------------------------------
 Exchange:     0.2500 Hartree-Fock + 0.7500 PBE
 Correlation:  1.0000 PBE
 Using SG-1 standard quadrature grid
 
 Citation of the SMD model:
 Marenich, A.V.; Cramer, C.J.; Truhlar, D.G.
 J. Phys. Chem. B 2009, 113, 6378-6396.
 iSolventCode=           1
 Solvent: water                                                           
 
 vradii
            1           2           3           4           5
    1   2.4900000   1.5200000   1.5200000   1.7300000   1.2000000
 using 12 threads for integral computing
 -------------------------------------------------------
 OpenMP Integral computing Module                
 Release: version 1.0, May 2013, Q-Chem Inc. Pittsburgh 
 -------------------------------------------------------
 A restricted SCF calculation will be
 performed using DIIS
 SCF converges when DIIS error is below 1.0e-08
 ---------------------------------------
  Cycle       Energy         DIIS error
 ---------------------------------------
    1    -649.3392129776      6.05e-02  
    2    -648.5413655765      1.27e-02  
    3    -648.2529877319      2.20e-02  
    4    -648.6970809076      2.07e-03  
    5    -648.6992648668      1.41e-03  
    6    -648.7011142212      1.70e-04  
    7    -648.7011288915      1.12e-04  
    8    -648.7011391755      1.99e-05  
    9    -648.7011395635      4.30e-06  
   10    -648.7011395846      5.05e-07  
   11    -648.7011395850      1.28e-07  
   12    -648.7011395848      4.06e-08  
   13    -648.7011395848      6.86e-09  Convergence criterion met
 ---------------------------------------
 SCF time:   CPU 18.91s  wall 2.00s 
(3)  G-ENP(liq) elect-nuc-pol free energy of system     -648.701139585 a.u.
(4)  G-CDS(liq) cavity-dispersion-solvent structure 
     free energy                                                1.0592 kcal/mol
(6)  G-S(liq) free energy of system                     -648.699451597 a.u.
 SCF   energy in the final basis set =     -648.7011395848
 Total energy in the final basis set =     -648.6994515966
 
 --------------------------------------------------------------
 
                    Orbital Energies (a.u.)
 --------------------------------------------------------------
 
 Alpha MOs
 -- Occupied --
-89.2518 -24.7484 -19.3000 -19.2804  -8.2203  -6.1570  -6.1559  -6.1494
 -1.2292  -1.1782  -1.1090  -0.7186  -0.6046  -0.5525  -0.5393  -0.5019
 -0.4275  -0.4255  -0.3969  -0.3923  -0.3710
 -- Virtual --
 -0.1540   0.0098   0.0143   0.0356   0.0541   0.0781   0.0847   0.1540
  0.1696   0.1732   0.1813   0.1947   0.2093   0.2358   0.2564   0.2775
  0.2846   0.2954   0.3023   0.3157   0.3449   0.3591   0.4136   0.4737
  0.6299   0.6591   0.6687   0.7152   0.9168   0.9927   0.9956   1.0306
  1.0588   1.0810   1.0870   1.1191   1.2516   1.3350   1.3850   1.4104
  1.4745   1.5261   1.5544   1.6191   1.6585   1.7958   1.8119   2.0185
  2.5967   2.7397   2.7475   2.7711   2.8708   2.8976   2.9548   3.0342
  3.2763   3.4654   3.5662   3.8172   3.8507   3.8676   3.9518   4.4465
  4.9022   4.9348   4.9677   4.9940   5.1687   5.2090   6.3437   6.3841
  6.4549   7.9965  17.2242  17.2915  17.4229  49.8771  49.9328  66.9381
189.2998
 --------------------------------------------------------------
 
          Ground-State Mulliken Net Atomic Charges

     Atom                 Charge (a.u.)
  ----------------------------------------
      1 S                     0.718534
      2 O                    -0.370394
      3 O                    -0.247132
      4 F                    -0.475118
      5 H                     0.374111
  ----------------------------------------
  Sum of atomic charges =     0.000000

 -----------------------------------------------------------------
                    Cartesian Multipole Moments
 -----------------------------------------------------------------
    Charge (ESU x 10^10)
                -0.0000
    Dipole Moment (Debye)
         X      -0.7798      Y      -0.9016      Z      -2.2032
       Tot       2.5049
    Quadrupole Moments (Debye-Ang)
        XX     -31.0719     XY      -1.9224     YY     -32.5801
        XZ       2.0034     YZ       0.3038     ZZ     -27.9218
    Octopole Moments (Debye-Ang^2)
       XXX       5.8791    XXY       1.1200    XYY      -6.6513
       YYY      14.3972    XXZ      -0.5246    XYZ      -2.0187
       YYZ       0.3715    XZZ      -0.0678    YZZ       4.0332
       ZZZ       3.9889
    Hexadecapole Moments (Debye-Ang^3)
      XXXX    -187.5745   XXXY     -21.4193   XXYY     -54.2308
      XYYY     -14.0155   YYYY    -114.1112   XXXZ       6.5622
      XXYZ      -2.3972   XYYZ       1.2145   YYYZ      -5.5990
      XXZZ     -39.5387   XYZZ      -4.9130   YYZZ     -26.2435
      XZZZ       2.8457   YZZZ      -4.7120   ZZZZ     -48.5310
 -----------------------------------------------------------------
 Calculating analytic gradient of the SCF energy
 Gradient of CDS energy
            1           2           3           4           5
    1  -0.0000298  -0.0002789   0.0000059  -0.0000095   0.0003122
    2  -0.0001707  -0.0000686   0.0000148   0.0003927  -0.0001682
    3   0.0000242  -0.0001141  -0.0000229   0.0000311   0.0000817
 Gradient of SCF Energy
            1           2           3           4           5
    1  -0.0023176  -0.0018715  -0.0024908  -0.0036040   0.0102838
    2   0.0008885  -0.0040998   0.0011233   0.0068632  -0.0047752
    3  -0.0015574  -0.0022735   0.0013317  -0.0009793   0.0034786
 Max gradient component =       1.028E-02
 RMS gradient           =       4.042E-03
 Computing fast CPCM-SWIG gradient
 Updating gradient with PCM contributions...
 -- total gradient after adding PCM contribution --
---------------------------------------------------
  Atom         X              Y              Z     
---------------------------------------------------
   1      -0.003540       0.000335       0.002925
   2       0.000621       0.001033      -0.002019
   3      -0.000188       0.000954      -0.001869
   4      -0.003014       0.002196      -0.001856
   5       0.006121      -0.004518       0.002820
---------------------------------------------------
 Number of fixed atoms: 0
 Gradient time:  CPU 6.86 s  wall 0.59 s
 ######################################################
 ######################################################
 # Starting finite difference calculation for IDERIV  #
 Finite diff step size:  1.88973e-03 a.u.
 ----------------------------------------------------------------
             Standard Nuclear Orientation (Angstroms)
    I     Atom           X                Y                Z
 ----------------------------------------------------------------
    1      S      -0.3628310000    -0.1825380000    -0.4506540000
    2      O       0.7843910000    -1.1370370000    -0.0916650000
    3      O      -1.4664540000    -0.2735650000     0.4679830000
    4      F       1.2756830000     1.0026980000     0.2135470000
    5      H       1.4833690000    -0.2348150000     0.1803410000
 ----------------------------------------------------------------
 Nuclear Repulsion Energy =         183.60037256 hartrees
 There are       21 alpha and       21 beta electrons
 Discretize the solute cavity surface with Lebedev spheres
	Using 110 Lebedev grid points for each H atom
	Using 194 Lebedev grid points for other atoms
	Atomic van der Waals radii will be scaled by 1.20
 Remove points where switching function is < 1.0e-08
 Keep 494 surface tesserae and discard 392 interior tesserae
 Molecular Surface Area = 93.752 Angst**2

                       Distance Matrix (Angstroms)
             S (  1)   O (  2)   O (  3)   F (  4)
   O (  2)  1.534946
   O (  3)  1.438806  2.474893
   F (  4)  2.128538  2.216526  3.035276
   H (  5)  1.951754  1.173270  2.964067  1.255259
 
 Requested basis set is 6-311+G(d,p)
 There are 35 shells and 102 basis functions
 A cutoff of  1.0D-11 yielded    603 shell pairs
 There are      5243 function pairs (      5671 Cartesian)
 Smallest overlap matrix eigenvalue = 1.40E-03
 Guess MOs from SCF MO coefficient file

 -----------------------------------------------------------------------
  General SCF calculation program by
  Eric Jon Sundstrom, Paul Horn, Yuezhi Mao, Dmitri Zuev, Alec White,
  David Stuck, Shaama M.S., Shane Yost, Joonho Lee, David Small,
  Daniel Levine, Susi Lehtola, Hugh Burton, Evgeny Epifanovsky,
  Bang C. Huynh
 -----------------------------------------------------------------------
 Exchange:     0.2500 Hartree-Fock + 0.7500 PBE
 Correlation:  1.0000 PBE
 Using SG-1 standard quadrature grid
 
 Citation of the SMD model:
 Marenich, A.V.; Cramer, C.J.; Truhlar, D.G.
 J. Phys. Chem. B 2009, 113, 6378-6396.
 iSolventCode=           1
 Solvent: water                                                           
 
 vradii
            1           2           3           4           5
    1   2.4900000   1.5200000   1.5200000   1.7300000   1.2000000
 using 12 threads for integral computing
 -------------------------------------------------------
 OpenMP Integral computing Module                
 Release: version 1.0, May 2013, Q-Chem Inc. Pittsburgh 
 -------------------------------------------------------
 A restricted SCF calculation will be
 performed using Roothaan-Hall, DIIS
 SCF converges when DIIS error is below 1.0e-08
 ---------------------------------------
  Cycle       Energy         DIIS error
 ---------------------------------------
    1    -648.8441625939      6.26e-04  Roothaan Step
 ---------------------------------------
  Cycle       Energy         DIIS error
 ---------------------------------------
    1    -648.6990669362      1.12e-03  
    2    -648.6969101620      2.14e-03  
    3    -648.7010832901      2.43e-04  
    4    -648.7010956373      2.28e-04  
    5    -648.7011433094      4.32e-05  
    6    -648.7011444078      2.71e-05  
    7    -648.7011450063      6.54e-06  
    8    -648.7011450467      8.41e-07  
    9    -648.7011450480      2.55e-07  
   10    -648.7011450481      6.86e-08  
   11    -648.7011450482      1.15e-08  
   12    -648.7011450482      2.16e-09  Convergence criterion met
 ---------------------------------------
 SCF time:   CPU 18.44s  wall 1.00s 
(3)  G-ENP(liq) elect-nuc-pol free energy of system     -648.701145048 a.u.
(4)  G-CDS(liq) cavity-dispersion-solvent structure 
     free energy                                                1.0592 kcal/mol
(6)  G-S(liq) free energy of system                     -648.699457116 a.u.
 SCF   energy in the final basis set =     -648.7011450482
 Total energy in the final basis set =     -648.6994571163
 
 --------------------------------------------------------------
 
                    Orbital Energies (a.u.)
 --------------------------------------------------------------
 
 Alpha MOs
 -- Occupied --
-89.2518 -24.7485 -19.2998 -19.2806  -8.2203  -6.1570  -6.1559  -6.1494
 -1.2293  -1.1780  -1.1092  -0.7186  -0.6048  -0.5524  -0.5393  -0.5018
 -0.4275  -0.4256  -0.3970  -0.3924  -0.3709
 -- Virtual --
 -0.1540   0.0098   0.0144   0.0356   0.0541   0.0782   0.0846   0.1540
  0.1696   0.1732   0.1813   0.1947   0.2092   0.2359   0.2564   0.2775
  0.2845   0.2954   0.3023   0.3157   0.3448   0.3592   0.4137   0.4736
  0.6299   0.6590   0.6687   0.7154   0.9169   0.9927   0.9957   1.0306
  1.0588   1.0809   1.0869   1.1187   1.2515   1.3352   1.3850   1.4104
  1.4747   1.5261   1.5542   1.6191   1.6585   1.7960   1.8117   2.0185
  2.5966   2.7400   2.7477   2.7710   2.8705   2.8974   2.9547   3.0342
  3.2767   3.4648   3.5661   3.8171   3.8506   3.8675   3.9518   4.4464
  4.9023   4.9350   4.9678   4.9938   5.1685   5.2087   6.3436   6.3839
  6.4548   7.9965  17.2243  17.2916  17.4225  49.8772  49.9327  66.9380
189.2997
 --------------------------------------------------------------
 
          Ground-State Mulliken Net Atomic Charges

     Atom                 Charge (a.u.)
  ----------------------------------------
      1 S                     0.718236
      2 O                    -0.369554
      3 O                    -0.248056
      4 F                    -0.474609
      5 H                     0.373982
  ----------------------------------------
  Sum of atomic charges =     0.000000

 -----------------------------------------------------------------
                    Cartesian Multipole Moments
 -----------------------------------------------------------------
    Charge (ESU x 10^10)
                -0.0000
    Dipole Moment (Debye)
         X      -0.7656      Y      -0.9024      Z      -2.2038
       Tot       2.5015
    Quadrupole Moments (Debye-Ang)
        XX     -31.0787     XY      -1.9251     YY     -32.5750
        XZ       2.0030     YZ       0.3051     ZZ     -27.9230
    Octopole Moments (Debye-Ang^2)
       XXX       5.8848    XXY       1.1238    XYY      -6.6473
       YYY      14.3927    XXZ      -0.5254    XYZ      -2.0173
       YYZ       0.3701    XZZ      -0.0691    YZZ       4.0322
       ZZZ       3.9868
    Hexadecapole Moments (Debye-Ang^3)
      XXXX    -187.5570   XXXY     -21.4166   XXYY     -54.2213
      XYYY     -14.0160   YYYY    -114.0820   XXXZ       6.5781
      XXYZ      -2.3954   XYYZ       1.2203   YYYZ      -5.5951
      XXZZ     -39.5349   XYZZ      -4.9142   YYZZ     -26.2400
      XZZZ       2.8632   YZZZ      -4.7088   ZZZZ     -48.5360
 -----------------------------------------------------------------
 Calculating analytic gradient of the SCF energy
 Gradient of CDS energy
            1           2           3           4           5
    1  -0.0000298  -0.0002789   0.0000060  -0.0000095   0.0003122
    2  -0.0001708  -0.0000686   0.0000148   0.0003927  -0.0001682
    3   0.0000242  -0.0001142  -0.0000229   0.0000311   0.0000817
 Gradient of SCF Energy
            1           2           3           4           5
    1  -0.0010731  -0.0022726  -0.0032121  -0.0036455   0.0102033
    2   0.0006545  -0.0038349   0.0010689   0.0068993  -0.0047878
    3  -0.0019440  -0.0024075   0.0019052  -0.0009966   0.0034429
 Max gradient component =       1.020E-02
 RMS gradient           =       4.057E-03
 Computing fast CPCM-SWIG gradient
 Updating gradient with PCM contributions...
 -- total gradient after adding PCM contribution --
---------------------------------------------------
  Atom         X              Y              Z     
---------------------------------------------------
   1      -0.002302       0.000103       0.002524
   2       0.000239       0.001312      -0.002147
   3      -0.000916       0.000896      -0.001285
   4      -0.003043       0.002220      -0.001871
   5       0.006021      -0.004531       0.002780
---------------------------------------------------
 Number of fixed atoms: 0
 Gradient time:  CPU 6.53 s  wall 0.55 s
 ----------------------------------------------------------------
             Standard Nuclear Orientation (Angstroms)
    I     Atom           X                Y                Z
 ----------------------------------------------------------------
    1      S      -0.3648310000    -0.1825380000    -0.4506540000
    2      O       0.7843910000    -1.1370370000    -0.0916650000
    3      O      -1.4664540000    -0.2735650000     0.4679830000
    4      F       1.2756830000     1.0026980000     0.2135470000
    5      H       1.4833690000    -0.2348150000     0.1803410000
 ----------------------------------------------------------------
 Nuclear Repulsion Energy =         183.57756992 hartrees
 There are       21 alpha and       21 beta electrons
 Discretize the solute cavity surface with Lebedev spheres
	Using 110 Lebedev grid points for each H atom
	Using 194 Lebedev grid points for other atoms
	Atomic van der Waals radii will be scaled by 1.20
 Remove points where switching function is < 1.0e-08
 Keep 495 surface tesserae and discard 391 interior tesserae
 Molecular Surface Area = 93.765 Angst**2

                       Distance Matrix (Angstroms)
             S (  1)   O (  2)   O (  3)   F (  4)
   O (  2)  1.536442
   O (  3)  1.437273  2.474893
   F (  4)  2.130078  2.216526  3.035276
   H (  5)  1.953646  1.173270  2.964067  1.255259
 
 Requested basis set is 6-311+G(d,p)
 There are 35 shells and 102 basis functions
 A cutoff of  1.0D-11 yielded    603 shell pairs
 There are      5243 function pairs (      5671 Cartesian)
 Smallest overlap matrix eigenvalue = 1.40E-03
 Guess MOs from SCF MO coefficient file

 -----------------------------------------------------------------------
  General SCF calculation program by
  Eric Jon Sundstrom, Paul Horn, Yuezhi Mao, Dmitri Zuev, Alec White,
  David Stuck, Shaama M.S., Shane Yost, Joonho Lee, David Small,
  Daniel Levine, Susi Lehtola, Hugh Burton, Evgeny Epifanovsky,
  Bang C. Huynh
 -----------------------------------------------------------------------
 Exchange:     0.2500 Hartree-Fock + 0.7500 PBE
 Correlation:  1.0000 PBE
 Using SG-1 standard quadrature grid
 
 Citation of the SMD model:
 Marenich, A.V.; Cramer, C.J.; Truhlar, D.G.
 J. Phys. Chem. B 2009, 113, 6378-6396.
 iSolventCode=           1
 Solvent: water                                                           
 
 vradii
            1           2           3           4           5
    1   2.4900000   1.5200000   1.5200000   1.7300000   1.2000000
 using 12 threads for integral computing
 -------------------------------------------------------
 OpenMP Integral computing Module                
 Release: version 1.0, May 2013, Q-Chem Inc. Pittsburgh 
 -------------------------------------------------------
 A restricted SCF calculation will be
 performed using Roothaan-Hall, DIIS
 SCF converges when DIIS error is below 1.0e-08
 ---------------------------------------
  Cycle       Energy         DIIS error
 ---------------------------------------
    1    -648.8445104755      6.21e-04  Roothaan Step
 ---------------------------------------
  Cycle       Energy         DIIS error
 ---------------------------------------
    1    -648.6991333817      1.09e-03  
    2    -648.6973511783      2.02e-03  
    3    -648.7010733654      2.37e-04  
    4    -648.7010837405      2.24e-04  
    5    -648.7011300000      4.35e-05  
    6    -648.7011311799      2.63e-05  
    7    -648.7011317374      6.73e-06  
    8    -648.7011317800      8.43e-07  
    9    -648.7011317813      2.55e-07  
   10    -648.7011317814      6.86e-08  
   11    -648.7011317815      1.13e-08  
   12    -648.7011317815      2.16e-09  Convergence criterion met
 ---------------------------------------
 SCF time:   CPU 18.85s  wall 1.00s 
(3)  G-ENP(liq) elect-nuc-pol free energy of system     -648.701131781 a.u.
(4)  G-CDS(liq) cavity-dispersion-solvent structure 
     free energy                                                1.0593 kcal/mol
(6)  G-S(liq) free energy of system                     -648.699443737 a.u.
 SCF   energy in the final basis set =     -648.7011317815
 Total energy in the final basis set =     -648.6994437370
 
 --------------------------------------------------------------
 
                    Orbital Energies (a.u.)
 --------------------------------------------------------------
 
 Alpha MOs
 -- Occupied --
-89.2518 -24.7483 -19.3001 -19.2803  -8.2203  -6.1570  -6.1559  -6.1494
 -1.2291  -1.1783  -1.1089  -0.7186  -0.6044  -0.5525  -0.5394  -0.5020
 -0.4275  -0.4255  -0.3968  -0.3921  -0.3711
 -- Virtual --
 -0.1541   0.0098   0.0142   0.0356   0.0541   0.0781   0.0847   0.1540
  0.1696   0.1732   0.1813   0.1947   0.2093   0.2358   0.2564   0.2775
  0.2846   0.2954   0.3022   0.3157   0.3450   0.3591   0.4136   0.4738
  0.6299   0.6592   0.6688   0.7151   0.9166   0.9926   0.9955   1.0306
  1.0587   1.0811   1.0871   1.1195   1.2517   1.3348   1.3849   1.4105
  1.4744   1.5262   1.5546   1.6191   1.6585   1.7955   1.8121   2.0184
  2.5967   2.7395   2.7472   2.7711   2.8710   2.8978   2.9548   3.0343
  3.2758   3.4661   3.5663   3.8173   3.8508   3.8678   3.9518   4.4467
  4.9022   4.9346   4.9677   4.9941   5.1690   5.2093   6.3438   6.3842
  6.4549   7.9966  17.2241  17.2914  17.4234  49.8769  49.9330  66.9382
189.3000
 --------------------------------------------------------------
 
          Ground-State Mulliken Net Atomic Charges

     Atom                 Charge (a.u.)
  ----------------------------------------
      1 S                     0.718831
      2 O                    -0.371235
      3 O                    -0.246208
      4 F                    -0.475627
      5 H                     0.374239
  ----------------------------------------
  Sum of atomic charges =     0.000000

 -----------------------------------------------------------------
                    Cartesian Multipole Moments
 -----------------------------------------------------------------
    Charge (ESU x 10^10)
                -0.0000
    Dipole Moment (Debye)
         X      -0.7939      Y      -0.9008      Z      -2.2025
       Tot       2.5085
    Quadrupole Moments (Debye-Ang)
        XX     -31.0652     XY      -1.9198     YY     -32.5853
        XZ       2.0037     YZ       0.3024     ZZ     -27.9207
    Octopole Moments (Debye-Ang^2)
       XXX       5.8733    XXY       1.1161    XYY      -6.6552
       YYY      14.4018    XXZ      -0.5239    XYZ      -2.0201
       YYZ       0.3729    XZZ      -0.0664    YZZ       4.0343
       ZZZ       3.9911
    Hexadecapole Moments (Debye-Ang^3)
      XXXX    -187.5922   XXXY     -21.4221   XXYY     -54.2403
      XYYY     -14.0149   YYYY    -114.1403   XXXZ       6.5463
      XXYZ      -2.3989   XYYZ       1.2086   YYYZ      -5.6030
      XXZZ     -39.5426   XYZZ      -4.9118   YYZZ     -26.2469
      XZZZ       2.8282   YZZZ      -4.7152   ZZZZ     -48.5260
 -----------------------------------------------------------------
 Calculating analytic gradient of the SCF energy
 Gradient of CDS energy
            1           2           3           4           5
    1  -0.0000297  -0.0002789   0.0000059  -0.0000094   0.0003122
    2  -0.0001706  -0.0000687   0.0000148   0.0003927  -0.0001682
    3   0.0000242  -0.0001141  -0.0000229   0.0000312   0.0000816
 Gradient of SCF Energy
            1           2           3           4           5
    1  -0.0035632  -0.0014720  -0.0017663  -0.0035626   0.0103641
    2   0.0011205  -0.0043630   0.0011780   0.0068270  -0.0047625
    3  -0.0011664  -0.0021402   0.0007546  -0.0009621   0.0035141
 Max gradient component =       1.036E-02
 RMS gradient           =       4.073E-03
 Computing fast CPCM-SWIG gradient
 Updating gradient with PCM contributions...
 -- total gradient after adding PCM contribution --
---------------------------------------------------
  Atom         X              Y              Z     
---------------------------------------------------
   1      -0.004779       0.000565       0.003330
   2       0.001000       0.000757      -0.001892
   3       0.000543       0.001012      -0.002457
   4      -0.002986       0.002172      -0.001841
   5       0.006222      -0.004506       0.002860
---------------------------------------------------
 Number of fixed atoms: 0
 Gradient time:  CPU 6.63 s  wall 0.56 s
 ----------------------------------------------------------------
             Standard Nuclear Orientation (Angstroms)
    I     Atom           X                Y                Z
 ----------------------------------------------------------------
    1      S      -0.3638310000    -0.1815380000    -0.4506540000
    2      O       0.7843910000    -1.1370370000    -0.0916650000
    3      O      -1.4664540000    -0.2735650000     0.4679830000
    4      F       1.2756830000     1.0026980000     0.2135470000
    5      H       1.4833690000    -0.2348150000     0.1803410000
 ----------------------------------------------------------------
 Nuclear Repulsion Energy =         183.57831257 hartrees
 There are       21 alpha and       21 beta electrons
 Discretize the solute cavity surface with Lebedev spheres
	Using 110 Lebedev grid points for each H atom
	Using 194 Lebedev grid points for other atoms
	Atomic van der Waals radii will be scaled by 1.20
 Remove points where switching function is < 1.0e-08
 Keep 494 surface tesserae and discard 392 interior tesserae
 Molecular Surface Area = 93.757 Angst**2

                       Distance Matrix (Angstroms)
             S (  1)   O (  2)   O (  3)   F (  4)
   O (  2)  1.536315
   O (  3)  1.438103  2.474893
   F (  4)  2.128752  2.216526  3.035276
   H (  5)  1.952727  1.173270  2.964067  1.255259
 
 Requested basis set is 6-311+G(d,p)
 There are 35 shells and 102 basis functions
 A cutoff of  1.0D-11 yielded    603 shell pairs
 There are      5243 function pairs (      5671 Cartesian)
 Smallest overlap matrix eigenvalue = 1.41E-03
 Guess MOs from SCF MO coefficient file

 -----------------------------------------------------------------------
  General SCF calculation program by
  Eric Jon Sundstrom, Paul Horn, Yuezhi Mao, Dmitri Zuev, Alec White,
  David Stuck, Shaama M.S., Shane Yost, Joonho Lee, David Small,
  Daniel Levine, Susi Lehtola, Hugh Burton, Evgeny Epifanovsky,
  Bang C. Huynh
 -----------------------------------------------------------------------
 Exchange:     0.2500 Hartree-Fock + 0.7500 PBE
 Correlation:  1.0000 PBE
 Using SG-1 standard quadrature grid
 
 Citation of the SMD model:
 Marenich, A.V.; Cramer, C.J.; Truhlar, D.G.
 J. Phys. Chem. B 2009, 113, 6378-6396.
 iSolventCode=           1
 Solvent: water                                                           
 
 vradii
            1           2           3           4           5
    1   2.4900000   1.5200000   1.5200000   1.7300000   1.2000000
 using 12 threads for integral computing
 -------------------------------------------------------
 OpenMP Integral computing Module                
 Release: version 1.0, May 2013, Q-Chem Inc. Pittsburgh 
 -------------------------------------------------------
 A restricted SCF calculation will be
 performed using Roothaan-Hall, DIIS
 SCF converges when DIIS error is below 1.0e-08
 ---------------------------------------
  Cycle       Energy         DIIS error
 ---------------------------------------
    1    -648.8437923160      6.26e-04  Roothaan Step
 ---------------------------------------
  Cycle       Energy         DIIS error
 ---------------------------------------
    1    -648.6990789245      1.12e-03  
    2    -648.6970021139      2.11e-03  
    3    -648.7010770230      2.42e-04  
    4    -648.7010889706      2.28e-04  
    5    -648.7011366199      4.29e-05  
    6    -648.7011377245      2.67e-05  
    7    -648.7011383011      6.59e-06  
    8    -648.7011383420      8.44e-07  
    9    -648.7011383433      2.57e-07  
   10    -648.7011383435      6.87e-08  
   11    -648.7011383435      1.15e-08  
   12    -648.7011383435      2.16e-09  Convergence criterion met
 ---------------------------------------
 SCF time:   CPU 18.69s  wall 2.00s 
(3)  G-ENP(liq) elect-nuc-pol free energy of system     -648.701138343 a.u.
(4)  G-CDS(liq) cavity-dispersion-solvent structure 
     free energy                                                1.0590 kcal/mol
(6)  G-S(liq) free energy of system                     -648.699450678 a.u.
 SCF   energy in the final basis set =     -648.7011383435
 Total energy in the final basis set =     -648.6994506780
 
 --------------------------------------------------------------
 
                    Orbital Energies (a.u.)
 --------------------------------------------------------------
 
 Alpha MOs
 -- Occupied --
-89.2518 -24.7485 -19.3000 -19.2804  -8.2203  -6.1570  -6.1559  -6.1494
 -1.2291  -1.1782  -1.1088  -0.7187  -0.6045  -0.5524  -0.5393  -0.5020
 -0.4275  -0.4256  -0.3968  -0.3922  -0.3710
 -- Virtual --
 -0.1540   0.0098   0.0141   0.0356   0.0541   0.0781   0.0846   0.1540
  0.1696   0.1732   0.1813   0.1947   0.2093   0.2359   0.2564   0.2775
  0.2845   0.2954   0.3023   0.3157   0.3448   0.3591   0.4136   0.4737
  0.6298   0.6590   0.6686   0.7152   0.9167   0.9927   0.9953   1.0307
  1.0588   1.0810   1.0870   1.1190   1.2516   1.3351   1.3850   1.4104
  1.4745   1.5261   1.5545   1.6190   1.6585   1.7958   1.8119   2.0185
  2.5967   2.7398   2.7475   2.7711   2.8708   2.8976   2.9546   3.0341
  3.2758   3.4654   3.5662   3.8171   3.8507   3.8676   3.9518   4.4465
  4.9023   4.9348   4.9678   4.9939   5.1687   5.2088   6.3436   6.3840
  6.4548   7.9962  17.2242  17.2914  17.4227  49.8770  49.9329  66.9381
189.2994
 --------------------------------------------------------------
 
          Ground-State Mulliken Net Atomic Charges

     Atom                 Charge (a.u.)
  ----------------------------------------
      1 S                     0.718903
      2 O                    -0.370972
      3 O                    -0.247168
      4 F                    -0.474771
      5 H                     0.374008
  ----------------------------------------
  Sum of atomic charges =     0.000000

 -----------------------------------------------------------------
                    Cartesian Multipole Moments
 -----------------------------------------------------------------
    Charge (ESU x 10^10)
                -0.0000
    Dipole Moment (Debye)
         X      -0.7804      Y      -0.8934      Z      -2.2036
       Tot       2.5026
    Quadrupole Moments (Debye-Ang)
        XX     -31.0711     XY      -1.9204     YY     -32.5851
        XZ       2.0048     YZ       0.3024     ZZ     -27.9206
    Octopole Moments (Debye-Ang^2)
       XXX       5.8799    XXY       1.1160    XYY      -6.6498
       YYY      14.3807    XXZ      -0.5235    XYZ      -2.0186
       YYZ       0.3741    XZZ      -0.0699    YZZ       4.0257
       ZZZ       3.9878
    Hexadecapole Moments (Debye-Ang^3)
      XXXX    -187.5687   XXXY     -21.3957   XXYY     -54.2261
      XYYY     -13.9983   YYYY    -114.1038   XXXZ       6.5658
      XXYZ      -2.3936   XYYZ       1.2162   YYYZ      -5.5875
      XXZZ     -39.5367   XYZZ      -4.9057   YYZZ     -26.2425
      XZZZ       2.8483   YZZZ      -4.6977   ZZZZ     -48.5253
 -----------------------------------------------------------------
 Calculating analytic gradient of the SCF energy
 Gradient of CDS energy
            1           2           3           4           5
    1  -0.0000299  -0.0002789   0.0000059  -0.0000094   0.0003122
    2  -0.0001708  -0.0000686   0.0000148   0.0003927  -0.0001682
    3   0.0000242  -0.0001142  -0.0000229   0.0000312   0.0000817
 Gradient of SCF Energy
            1           2           3           4           5
    1  -0.0025484  -0.0016717  -0.0025233  -0.0035633   0.0103067
    2   0.0012012  -0.0044154   0.0010568   0.0067686  -0.0046112
    3  -0.0017843  -0.0021514   0.0014180  -0.0009849   0.0035026
 Max gradient component =       1.031E-02
 RMS gradient           =       4.056E-03
 Computing fast CPCM-SWIG gradient
 Updating gradient with PCM contributions...
 -- total gradient after adding PCM contribution --
---------------------------------------------------
  Atom         X              Y              Z     
---------------------------------------------------
   1      -0.003770       0.000638       0.002699
   2       0.000819       0.000713      -0.001900
   3      -0.000224       0.000895      -0.001783
   4      -0.002976       0.002109      -0.001861
   5       0.006151      -0.004355       0.002845
---------------------------------------------------
 Number of fixed atoms: 0
 Gradient time:  CPU 6.86 s  wall 0.58 s
 ----------------------------------------------------------------
             Standard Nuclear Orientation (Angstroms)
    I     Atom           X                Y                Z
 ----------------------------------------------------------------
    1      S      -0.3638310000    -0.1835380000    -0.4506540000
    2      O       0.7843910000    -1.1370370000    -0.0916650000
    3      O      -1.4664540000    -0.2735650000     0.4679830000
    4      F       1.2756830000     1.0026980000     0.2135470000
    5      H       1.4833690000    -0.2348150000     0.1803410000
 ----------------------------------------------------------------
 Nuclear Repulsion Energy =         183.59957057 hartrees
 There are       21 alpha and       21 beta electrons
 Discretize the solute cavity surface with Lebedev spheres
	Using 110 Lebedev grid points for each H atom
	Using 194 Lebedev grid points for other atoms
	Atomic van der Waals radii will be scaled by 1.20
 Remove points where switching function is < 1.0e-08
 Keep 494 surface tesserae and discard 392 interior tesserae
 Molecular Surface Area = 93.760 Angst**2

                       Distance Matrix (Angstroms)
             S (  1)   O (  2)   O (  3)   F (  4)
   O (  2)  1.535072
   O (  3)  1.437976  2.474893
   F (  4)  2.129865  2.216526  3.035276
   H (  5)  1.952673  1.173270  2.964067  1.255259
 
 Requested basis set is 6-311+G(d,p)
 There are 35 shells and 102 basis functions
 A cutoff of  1.0D-11 yielded    603 shell pairs
 There are      5243 function pairs (      5671 Cartesian)
 Smallest overlap matrix eigenvalue = 1.40E-03
 Guess MOs from SCF MO coefficient file

 -----------------------------------------------------------------------
  General SCF calculation program by
  Eric Jon Sundstrom, Paul Horn, Yuezhi Mao, Dmitri Zuev, Alec White,
  David Stuck, Shaama M.S., Shane Yost, Joonho Lee, David Small,
  Daniel Levine, Susi Lehtola, Hugh Burton, Evgeny Epifanovsky,
  Bang C. Huynh
 -----------------------------------------------------------------------
 Exchange:     0.2500 Hartree-Fock + 0.7500 PBE
 Correlation:  1.0000 PBE
 Using SG-1 standard quadrature grid
 
 Citation of the SMD model:
 Marenich, A.V.; Cramer, C.J.; Truhlar, D.G.
 J. Phys. Chem. B 2009, 113, 6378-6396.
 iSolventCode=           1
 Solvent: water                                                           
 
 vradii
            1           2           3           4           5
    1   2.4900000   1.5200000   1.5200000   1.7300000   1.2000000
 using 12 threads for integral computing
 -------------------------------------------------------
 OpenMP Integral computing Module                
 Release: version 1.0, May 2013, Q-Chem Inc. Pittsburgh 
 -------------------------------------------------------
 A restricted SCF calculation will be
 performed using Roothaan-Hall, DIIS
 SCF converges when DIIS error is below 1.0e-08
 ---------------------------------------
  Cycle       Energy         DIIS error
 ---------------------------------------
    1    -648.8438139876      6.23e-04  Roothaan Step
 ---------------------------------------
  Cycle       Energy         DIIS error
 ---------------------------------------
    1    -648.6990775523      1.12e-03  
    2    -648.6970050887      2.11e-03  
    3    -648.7010795639      2.40e-04  
    4    -648.7010915450      2.26e-04  
    5    -648.7011384621      4.38e-05  
    6    -648.7011396056      2.72e-05  
    7    -648.7011402105      6.62e-06  
    8    -648.7011402517      8.35e-07  
    9    -648.7011402529      2.53e-07  
   10    -648.7011402531      6.86e-08  
   11    -648.7011402532      1.12e-08  
   12    -648.7011402531      2.17e-09  Convergence criterion met
 ---------------------------------------
 SCF time:   CPU 20.04s  wall 2.00s 
(3)  G-ENP(liq) elect-nuc-pol free energy of system     -648.701140253 a.u.
(4)  G-CDS(liq) cavity-dispersion-solvent structure 
     free energy                                                1.0594 kcal/mol
(6)  G-S(liq) free energy of system                     -648.699451942 a.u.
 SCF   energy in the final basis set =     -648.7011402531
 Total energy in the final basis set =     -648.6994519425
 
 --------------------------------------------------------------
 
                    Orbital Energies (a.u.)
 --------------------------------------------------------------
 
 Alpha MOs
 -- Occupied --
-89.2517 -24.7483 -19.2999 -19.2805  -8.2203  -6.1569  -6.1559  -6.1494
 -1.2293  -1.1781  -1.1092  -0.7186  -0.6047  -0.5525  -0.5394  -0.5018
 -0.4274  -0.4255  -0.3970  -0.3923  -0.3710
 -- Virtual --
 -0.1540   0.0098   0.0145   0.0356   0.0541   0.0782   0.0847   0.1540
  0.1695   0.1732   0.1813   0.1947   0.2093   0.2358   0.2564   0.2775
  0.2846   0.2954   0.3023   0.3157   0.3449   0.3592   0.4136   0.4737
  0.6300   0.6592   0.6689   0.7152   0.9169   0.9927   0.9959   1.0306
  1.0587   1.0810   1.0870   1.1192   1.2516   1.3349   1.3850   1.4104
  1.4745   1.5261   1.5543   1.6192   1.6585   1.7958   1.8118   2.0184
  2.5966   2.7397   2.7475   2.7710   2.8707   2.8977   2.9549   3.0344
  3.2768   3.4655   3.5662   3.8173   3.8507   3.8677   3.9518   4.4466
  4.9022   4.9348   4.9677   4.9941   5.1687   5.2092   6.3438   6.3841
  6.4549   7.9969  17.2243  17.2916  17.4232  49.8771  49.9327  66.9382
189.3002
 --------------------------------------------------------------
 
          Ground-State Mulliken Net Atomic Charges

     Atom                 Charge (a.u.)
  ----------------------------------------
      1 S                     0.718164
      2 O                    -0.369816
      3 O                    -0.247096
      4 F                    -0.475465
      5 H                     0.374213
  ----------------------------------------
  Sum of atomic charges =     0.000000

 -----------------------------------------------------------------
                    Cartesian Multipole Moments
 -----------------------------------------------------------------
    Charge (ESU x 10^10)
                -0.0000
    Dipole Moment (Debye)
         X      -0.7791      Y      -0.9097      Z      -2.2028
       Tot       2.5073
    Quadrupole Moments (Debye-Ang)
        XX     -31.0728     XY      -1.9245     YY     -32.5751
        XZ       2.0019     YZ       0.3051     ZZ     -27.9231
    Octopole Moments (Debye-Ang^2)
       XXX       5.8782    XXY       1.1239    XYY      -6.6527
       YYY      14.4138    XXZ      -0.5258    XYZ      -2.0188
       YYZ       0.3689    XZZ      -0.0656    YZZ       4.0408
       ZZZ       3.9901
    Hexadecapole Moments (Debye-Ang^3)
      XXXX    -187.5804   XXXY     -21.4430   XXYY     -54.2354
      XYYY     -14.0326   YYYY    -114.1186   XXXZ       6.5586
      XXYZ      -2.4008   XYYZ       1.2128   YYYZ      -5.6106
      XXZZ     -39.5408   XYZZ      -4.9203   YYZZ     -26.2444
      XZZZ       2.8432   YZZZ      -4.7263   ZZZZ     -48.5368
 -----------------------------------------------------------------
 Calculating analytic gradient of the SCF energy
 Gradient of CDS energy
            1           2           3           4           5
    1  -0.0000297  -0.0002789   0.0000060  -0.0000096   0.0003122
    2  -0.0001706  -0.0000687   0.0000147   0.0003927  -0.0001682
    3   0.0000242  -0.0001141  -0.0000229   0.0000311   0.0000817
 Gradient of SCF Energy
            1           2           3           4           5
    1  -0.0020849  -0.0020726  -0.0024587  -0.0036447   0.0102609
    2   0.0005755  -0.0037838   0.0011896   0.0069578  -0.0049392
    3  -0.0013304  -0.0023962   0.0012457  -0.0009737   0.0034545
 Max gradient component =       1.026E-02
 RMS gradient           =       4.034E-03
 Computing fast CPCM-SWIG gradient
 Updating gradient with PCM contributions...
 -- total gradient after adding PCM contribution --
---------------------------------------------------
  Atom         X              Y              Z     
---------------------------------------------------
   1      -0.003308       0.000031       0.003151
   2       0.000421       0.001355      -0.002139
   3      -0.000153       0.001013      -0.001955
   4      -0.003052       0.002283      -0.001852
   5       0.006092      -0.004681       0.002795
---------------------------------------------------
 Number of fixed atoms: 0
 Gradient time:  CPU 7.22 s  wall 0.61 s
 ----------------------------------------------------------------
             Standard Nuclear Orientation (Angstroms)
    I     Atom           X                Y                Z
 ----------------------------------------------------------------
    1      S      -0.3638310000    -0.1825380000    -0.4496540000
    2      O       0.7843910000    -1.1370370000    -0.0916650000
    3      O      -1.4664540000    -0.2735650000     0.4679830000
    4      F       1.2756830000     1.0026980000     0.2135470000
    5      H       1.4833690000    -0.2348150000     0.1803410000
 ----------------------------------------------------------------
 Nuclear Repulsion Energy =         183.62254172 hartrees
 There are       21 alpha and       21 beta electrons
 Discretize the solute cavity surface with Lebedev spheres
	Using 110 Lebedev grid points for each H atom
	Using 194 Lebedev grid points for other atoms
	Atomic van der Waals radii will be scaled by 1.20
 Remove points where switching function is < 1.0e-08
 Keep 494 surface tesserae and discard 392 interior tesserae
 Molecular Surface Area = 93.752 Angst**2

                       Distance Matrix (Angstroms)
             S (  1)   O (  2)   O (  3)   F (  4)
   O (  2)  1.535460
   O (  3)  1.437401  2.474893
   F (  4)  2.128997  2.216526  3.035276
   H (  5)  1.952377  1.173270  2.964067  1.255259
 
 Requested basis set is 6-311+G(d,p)
 There are 35 shells and 102 basis functions
 A cutoff of  1.0D-11 yielded    603 shell pairs
 There are      5243 function pairs (      5671 Cartesian)
 Smallest overlap matrix eigenvalue = 1.40E-03
 Guess MOs from SCF MO coefficient file

 -----------------------------------------------------------------------
  General SCF calculation program by
  Eric Jon Sundstrom, Paul Horn, Yuezhi Mao, Dmitri Zuev, Alec White,
  David Stuck, Shaama M.S., Shane Yost, Joonho Lee, David Small,
  Daniel Levine, Susi Lehtola, Hugh Burton, Evgeny Epifanovsky,
  Bang C. Huynh
 -----------------------------------------------------------------------
 Exchange:     0.2500 Hartree-Fock + 0.7500 PBE
 Correlation:  1.0000 PBE
 Using SG-1 standard quadrature grid
 
 Citation of the SMD model:
 Marenich, A.V.; Cramer, C.J.; Truhlar, D.G.
 J. Phys. Chem. B 2009, 113, 6378-6396.
 iSolventCode=           1
 Solvent: water                                                           
 
 vradii
            1           2           3           4           5
    1   2.4900000   1.5200000   1.5200000   1.7300000   1.2000000
 using 12 threads for integral computing
 -------------------------------------------------------
 OpenMP Integral computing Module                
 Release: version 1.0, May 2013, Q-Chem Inc. Pittsburgh 
 -------------------------------------------------------
 A restricted SCF calculation will be
 performed using Roothaan-Hall, DIIS
 SCF converges when DIIS error is below 1.0e-08
 ---------------------------------------
  Cycle       Energy         DIIS error
 ---------------------------------------
    1    -648.8444997483      6.25e-04  Roothaan Step
 ---------------------------------------
  Cycle       Energy         DIIS error
 ---------------------------------------
    1    -648.6991155139      1.10e-03  
    2    -648.6972109147      2.06e-03  
    3    -648.7010739112      2.39e-04  
    4    -648.7010851707      2.24e-04  
    5    -648.7011315917      4.33e-05  
    6    -648.7011327457      2.65e-05  
    7    -648.7011333137      6.66e-06  
    8    -648.7011333555      8.46e-07  
    9    -648.7011333568      2.58e-07  
   10    -648.7011333569      6.88e-08  
   11    -648.7011333570      1.16e-08  
   12    -648.7011333570      2.15e-09  Convergence criterion met
 ---------------------------------------
 SCF time:   CPU 20.00s  wall 1.00s 
(3)  G-ENP(liq) elect-nuc-pol free energy of system     -648.701133357 a.u.
(4)  G-CDS(liq) cavity-dispersion-solvent structure 
     free energy                                                1.0593 kcal/mol
(6)  G-S(liq) free energy of system                     -648.699445323 a.u.
 SCF   energy in the final basis set =     -648.7011333570
 Total energy in the final basis set =     -648.6994453231
 
 --------------------------------------------------------------
 
                    Orbital Energies (a.u.)
 --------------------------------------------------------------
 
 Alpha MOs
 -- Occupied --
-89.2517 -24.7484 -19.2999 -19.2804  -8.2202  -6.1569  -6.1558  -6.1493
 -1.2293  -1.1783  -1.1092  -0.7185  -0.6047  -0.5525  -0.5394  -0.5020
 -0.4276  -0.4256  -0.3970  -0.3923  -0.3709
 -- Virtual --
 -0.1538   0.0098   0.0145   0.0357   0.0541   0.0782   0.0848   0.1540
  0.1696   0.1732   0.1813   0.1947   0.2092   0.2359   0.2564   0.2775
  0.2846   0.2954   0.3023   0.3157   0.3450   0.3591   0.4137   0.4737
  0.6300   0.6592   0.6690   0.7154   0.9168   0.9927   0.9958   1.0306
  1.0587   1.0810   1.0871   1.1194   1.2516   1.3351   1.3850   1.4103
  1.4744   1.5261   1.5543   1.6191   1.6584   1.7959   1.8118   2.0187
  2.5967   2.7396   2.7474   2.7711   2.8709   2.8978   2.9548   3.0346
  3.2767   3.4659   3.5664   3.8172   3.8507   3.8676   3.9518   4.4465
  4.9022   4.9348   4.9677   4.9942   5.1690   5.2094   6.3437   6.3841
  6.4549   7.9971  17.2244  17.2916  17.4239  49.8771  49.9328  66.9382
189.3005
 --------------------------------------------------------------
 
          Ground-State Mulliken Net Atomic Charges

     Atom                 Charge (a.u.)
  ----------------------------------------
      1 S                     0.717858
      2 O                    -0.370217
      3 O                    -0.246638
      4 F                    -0.475027
      5 H                     0.374024
  ----------------------------------------
  Sum of atomic charges =     0.000000

 -----------------------------------------------------------------
                    Cartesian Multipole Moments
 -----------------------------------------------------------------
    Charge (ESU x 10^10)
                -0.0000
    Dipole Moment (Debye)
         X      -0.7810      Y      -0.9025      Z      -2.1969
       Tot       2.5002
    Quadrupole Moments (Debye-Ang)
        XX     -31.0690     XY      -1.9222     YY     -32.5788
        XZ       2.0007     YZ       0.3036     ZZ     -27.9254
    Octopole Moments (Debye-Ang^2)
       XXX       5.8709    XXY       1.1195    XYY      -6.6533
       YYY      14.3954    XXZ      -0.5357    XYZ      -2.0182
       YYZ       0.3622    XZZ      -0.0672    YZZ       4.0334
       ZZZ       3.9641
    Hexadecapole Moments (Debye-Ang^3)
      XXXX    -187.5512   XXXY     -21.4199   XXYY     -54.2275
      XYYY     -14.0137   YYYY    -114.1081   XXXZ       6.5704
      XXYZ      -2.3933   XYYZ       1.2152   YYYZ      -5.5919
      XXZZ     -39.5306   XYZZ      -4.9136   YYZZ     -26.2348
      XZZZ       2.8541   YZZZ      -4.7071   ZZZZ     -48.4783
 -----------------------------------------------------------------
 Calculating analytic gradient of the SCF energy
 Gradient of CDS energy
            1           2           3           4           5
    1  -0.0000298  -0.0002790   0.0000060  -0.0000095   0.0003122
    2  -0.0001707  -0.0000686   0.0000148   0.0003927  -0.0001682
    3   0.0000241  -0.0001140  -0.0000228   0.0000311   0.0000816
 Gradient of SCF Energy
            1           2           3           4           5
    1  -0.0027165  -0.0019676  -0.0019383  -0.0036311   0.0102534
    2   0.0006637  -0.0039793   0.0012315   0.0068617  -0.0047776
    3  -0.0007557  -0.0024338   0.0007255  -0.0010349   0.0034989
 Max gradient component =       1.025E-02
 RMS gradient           =       4.011E-03
 Computing fast CPCM-SWIG gradient
 Updating gradient with PCM contributions...
 -- total gradient after adding PCM contribution --
---------------------------------------------------
  Atom         X              Y              Z     
---------------------------------------------------
   1      -0.003944       0.000108       0.003715
   2       0.000522       0.001158      -0.002172
   3       0.000372       0.001062      -0.002474
   4      -0.003042       0.002193      -0.001905
   5       0.006092      -0.004521       0.002835
---------------------------------------------------
 Number of fixed atoms: 0
 Gradient time:  CPU 7.41 s  wall 0.66 s
 ----------------------------------------------------------------
             Standard Nuclear Orientation (Angstroms)
    I     Atom           X                Y                Z
 ----------------------------------------------------------------
    1      S      -0.3638310000    -0.1825380000    -0.4516540000
    2      O       0.7843910000    -1.1370370000    -0.0916650000
    3      O      -1.4664540000    -0.2735650000     0.4679830000
    4      F       1.2756830000     1.0026980000     0.2135470000
    5      H       1.4833690000    -0.2348150000     0.1803410000
 ----------------------------------------------------------------
 Nuclear Repulsion Energy =         183.55534574 hartrees
 There are       21 alpha and       21 beta electrons
 Discretize the solute cavity surface with Lebedev spheres
	Using 110 Lebedev grid points for each H atom
	Using 194 Lebedev grid points for other atoms
	Atomic van der Waals radii will be scaled by 1.20
 Remove points where switching function is < 1.0e-08
 Keep 494 surface tesserae and discard 392 interior tesserae
 Molecular Surface Area = 93.765 Angst**2

                       Distance Matrix (Angstroms)
             S (  1)   O (  2)   O (  3)   F (  4)
   O (  2)  1.535928
   O (  3)  1.438678  2.474893
   F (  4)  2.129620  2.216526  3.035276
   H (  5)  1.953023  1.173270  2.964067  1.255259
 
 Requested basis set is 6-311+G(d,p)
 There are 35 shells and 102 basis functions
 A cutoff of  1.0D-11 yielded    603 shell pairs
 There are      5243 function pairs (      5671 Cartesian)
 Smallest overlap matrix eigenvalue = 1.41E-03
 Guess MOs from SCF MO coefficient file

 -----------------------------------------------------------------------
  General SCF calculation program by
  Eric Jon Sundstrom, Paul Horn, Yuezhi Mao, Dmitri Zuev, Alec White,
  David Stuck, Shaama M.S., Shane Yost, Joonho Lee, David Small,
  Daniel Levine, Susi Lehtola, Hugh Burton, Evgeny Epifanovsky,
  Bang C. Huynh
 -----------------------------------------------------------------------
 Exchange:     0.2500 Hartree-Fock + 0.7500 PBE
 Correlation:  1.0000 PBE
 Using SG-1 standard quadrature grid
 
 Citation of the SMD model:
 Marenich, A.V.; Cramer, C.J.; Truhlar, D.G.
 J. Phys. Chem. B 2009, 113, 6378-6396.
 iSolventCode=           1
 Solvent: water                                                           
 
 vradii
            1           2           3           4           5
    1   2.4900000   1.5200000   1.5200000   1.7300000   1.2000000
 using 12 threads for integral computing
 -------------------------------------------------------
 OpenMP Integral computing Module                
 Release: version 1.0, May 2013, Q-Chem Inc. Pittsburgh 
 -------------------------------------------------------
 A restricted SCF calculation will be
 performed using Roothaan-Hall, DIIS
 SCF converges when DIIS error is below 1.0e-08
 ---------------------------------------
  Cycle       Energy         DIIS error
 ---------------------------------------
    1    -648.8445624667      6.23e-04  Roothaan Step
 ---------------------------------------
  Cycle       Energy         DIIS error
 ---------------------------------------
    1    -648.6990567106      1.13e-03  
    2    -648.6968969541      2.14e-03  
    3    -648.7010819988      2.44e-04  
    4    -648.7010940312      2.30e-04  
    5    -648.7011426174      4.27e-05  
    6    -648.7011436892      2.69e-05  
    7    -648.7011442788      6.52e-06  
    8    -648.7011443188      8.38e-07  
    9    -648.7011443201      2.52e-07  
   10    -648.7011443202      6.82e-08  
   11    -648.7011443203      1.12e-08  
   12    -648.7011443202      2.16e-09  Convergence criterion met
 ---------------------------------------
 SCF time:   CPU 20.40s  wall 2.00s 
(3)  G-ENP(liq) elect-nuc-pol free energy of system     -648.701144320 a.u.
(4)  G-CDS(liq) cavity-dispersion-solvent structure 
     free energy                                                1.0592 kcal/mol
(6)  G-S(liq) free energy of system                     -648.699456378 a.u.
 SCF   energy in the final basis set =     -648.7011443202
 Total energy in the final basis set =     -648.6994563779
 
 --------------------------------------------------------------
 
                    Orbital Energies (a.u.)
 --------------------------------------------------------------
 
 Alpha MOs
 -- Occupied --
-89.2519 -24.7484 -19.3000 -19.2805  -8.2204  -6.1571  -6.1560  -6.1495
 -1.2291  -1.1780  -1.1089  -0.7188  -0.6045  -0.5524  -0.5393  -0.5018
 -0.4274  -0.4255  -0.3968  -0.3922  -0.3711
 -- Virtual --
 -0.1542   0.0098   0.0141   0.0356   0.0541   0.0781   0.0845   0.1540
  0.1695   0.1732   0.1813   0.1947   0.2093   0.2358   0.2564   0.2775
  0.2845   0.2954   0.3022   0.3157   0.3447   0.3591   0.4136   0.4737
  0.6297   0.6590   0.6685   0.7151   0.9168   0.9927   0.9953   1.0307
  1.0588   1.0809   1.0869   1.1187   1.2516   1.3349   1.3849   1.4105
  1.4746   1.5261   1.5545   1.6191   1.6585   1.7957   1.8119   2.0183
  2.5967   2.7399   2.7476   2.7710   2.8706   2.8974   2.9547   3.0339
  3.2759   3.4650   3.5660   3.8172   3.8507   3.8676   3.9517   4.4465
  4.9023   4.9348   4.9678   4.9937   5.1685   5.2086   6.3437   6.3840
  6.4548   7.9959  17.2241  17.2914  17.4220  49.8770  49.9328  66.9381
189.2991
 --------------------------------------------------------------
 
          Ground-State Mulliken Net Atomic Charges

     Atom                 Charge (a.u.)
  ----------------------------------------
      1 S                     0.719208
      2 O                    -0.370571
      3 O                    -0.247624
      4 F                    -0.475210
      5 H                     0.374197
  ----------------------------------------
  Sum of atomic charges =     0.000000

 -----------------------------------------------------------------
                    Cartesian Multipole Moments
 -----------------------------------------------------------------
    Charge (ESU x 10^10)
                -0.0000
    Dipole Moment (Debye)
         X      -0.7785      Y      -0.9006      Z      -2.2094
       Tot       2.5097
    Quadrupole Moments (Debye-Ang)
        XX     -31.0749     XY      -1.9227     YY     -32.5815
        XZ       2.0060     YZ       0.3039     ZZ     -27.9183
    Octopole Moments (Debye-Ang^2)
       XXX       5.8872    XXY       1.1205    XYY      -6.6493
       YYY      14.3990    XXZ      -0.5136    XYZ      -2.0191
       YYZ       0.3808    XZZ      -0.0684    YZZ       4.0331
       ZZZ       4.0138
    Hexadecapole Moments (Debye-Ang^3)
      XXXX    -187.5979   XXXY     -21.4187   XXYY     -54.2340
      XYYY     -14.0172   YYYY    -114.1144   XXXZ       6.5540
      XXYZ      -2.4010   XYYZ       1.2138   YYYZ      -5.6061
      XXZZ     -39.5468   XYZZ      -4.9123   YYZZ     -26.2522
      XZZZ       2.8373   YZZZ      -4.7169   ZZZZ     -48.5839
 -----------------------------------------------------------------
 Calculating analytic gradient of the SCF energy
 Gradient of CDS energy
            1           2           3           4           5
    1  -0.0000298  -0.0002788   0.0000059  -0.0000095   0.0003122
    2  -0.0001707  -0.0000686   0.0000148   0.0003927  -0.0001682
    3   0.0000243  -0.0001143  -0.0000229   0.0000312   0.0000817
 Gradient of SCF Energy
            1           2           3           4           5
    1  -0.0019215  -0.0017754  -0.0030403  -0.0035771   0.0103143
    2   0.0011128  -0.0042202   0.0010156   0.0068647  -0.0047728
    3  -0.0023577  -0.0021132   0.0019363  -0.0009238   0.0034583
 Max gradient component =       1.031E-02
 RMS gradient           =       4.097E-03
 Computing fast CPCM-SWIG gradient
 Updating gradient with PCM contributions...
 -- total gradient after adding PCM contribution --
---------------------------------------------------
  Atom         X              Y              Z     
---------------------------------------------------
   1      -0.003139       0.000560       0.002135
   2       0.000720       0.000909      -0.001867
   3      -0.000745       0.000846      -0.001267
   4      -0.002987       0.002199      -0.001807
   5       0.006151      -0.004515       0.002806
---------------------------------------------------
 Number of fixed atoms: 0
 Gradient time:  CPU 7.61 s  wall 0.66 s
 ----------------------------------------------------------------
             Standard Nuclear Orientation (Angstroms)
    I     Atom           X                Y                Z
 ----------------------------------------------------------------
    1      S      -0.3638310000    -0.1825380000    -0.4506540000
    2      O       0.7853910000    -1.1370370000    -0.0916650000
    3      O      -1.4664540000    -0.2735650000     0.4679830000
    4      F       1.2756830000     1.0026980000     0.2135470000
    5      H       1.4833690000    -0.2348150000     0.1803410000
 ----------------------------------------------------------------
 Nuclear Repulsion Energy =         183.56600660 hartrees
 There are       21 alpha and       21 beta electrons
 Discretize the solute cavity surface with Lebedev spheres
	Using 110 Lebedev grid points for each H atom
	Using 194 Lebedev grid points for other atoms
	Atomic van der Waals radii will be scaled by 1.20
 Remove points where switching function is < 1.0e-08
 Keep 494 surface tesserae and discard 392 interior tesserae
 Molecular Surface Area = 93.761 Angst**2

                       Distance Matrix (Angstroms)
             S (  1)   O (  2)   O (  3)   F (  4)
   O (  2)  1.536442
   O (  3)  1.438039  2.475802
   F (  4)  2.129308  2.216305  3.035276
   H (  5)  1.952700  1.172674  2.964067  1.255259
 
 Requested basis set is 6-311+G(d,p)
 There are 35 shells and 102 basis functions
 A cutoff of  1.0D-11 yielded    603 shell pairs
 There are      5243 function pairs (      5671 Cartesian)
 Smallest overlap matrix eigenvalue = 1.40E-03
 Guess MOs from SCF MO coefficient file

 -----------------------------------------------------------------------
  General SCF calculation program by
  Eric Jon Sundstrom, Paul Horn, Yuezhi Mao, Dmitri Zuev, Alec White,
  David Stuck, Shaama M.S., Shane Yost, Joonho Lee, David Small,
  Daniel Levine, Susi Lehtola, Hugh Burton, Evgeny Epifanovsky,
  Bang C. Huynh
 -----------------------------------------------------------------------
 Exchange:     0.2500 Hartree-Fock + 0.7500 PBE
 Correlation:  1.0000 PBE
 Using SG-1 standard quadrature grid
 
 Citation of the SMD model:
 Marenich, A.V.; Cramer, C.J.; Truhlar, D.G.
 J. Phys. Chem. B 2009, 113, 6378-6396.
 iSolventCode=           1
 Solvent: water                                                           
 
 vradii
            1           2           3           4           5
    1   2.4900000   1.5200000   1.5200000   1.7300000   1.2000000
 using 12 threads for integral computing
 -------------------------------------------------------
 OpenMP Integral computing Module                
 Release: version 1.0, May 2013, Q-Chem Inc. Pittsburgh 
 -------------------------------------------------------
 A restricted SCF calculation will be
 performed using Roothaan-Hall, DIIS
 SCF converges when DIIS error is below 1.0e-08
 ---------------------------------------
  Cycle       Energy         DIIS error
 ---------------------------------------
    1    -648.8437401473      6.24e-04  Roothaan Step
 ---------------------------------------
  Cycle       Energy         DIIS error
 ---------------------------------------
    1    -648.6991113265      1.10e-03  
    2    -648.6971895257      2.07e-03  
    3    -648.7010777836      2.39e-04  
    4    -648.7010889150      2.25e-04  
    5    -648.7011356978      4.35e-05  
    6    -648.7011368521      2.68e-05  
    7    -648.7011374330      6.64e-06  
    8    -648.7011374746      8.44e-07  
    9    -648.7011374758      2.55e-07  
   10    -648.7011374760      6.85e-08  
   11    -648.7011374760      1.14e-08  
   12    -648.7011374760      2.16e-09  Convergence criterion met
 ---------------------------------------
 SCF time:   CPU 20.70s  wall 1.00s 
(3)  G-ENP(liq) elect-nuc-pol free energy of system     -648.701137476 a.u.
(4)  G-CDS(liq) cavity-dispersion-solvent structure 
     free energy                                                1.0589 kcal/mol
(6)  G-S(liq) free energy of system                     -648.699450015 a.u.
 SCF   energy in the final basis set =     -648.7011374760
 Total energy in the final basis set =     -648.6994500150
 
 --------------------------------------------------------------
 
                    Orbital Energies (a.u.)
 --------------------------------------------------------------
 
 Alpha MOs
 -- Occupied --
-89.2519 -24.7484 -19.3001 -19.2804  -8.2204  -6.1570  -6.1560  -6.1495
 -1.2291  -1.1782  -1.1089  -0.7187  -0.6045  -0.5525  -0.5393  -0.5019
 -0.4275  -0.4255  -0.3968  -0.3922  -0.3710
 -- Virtual --
 -0.1541   0.0097   0.0142   0.0356   0.0541   0.0780   0.0846   0.1541
  0.1695   0.1732   0.1813   0.1946   0.2093   0.2358   0.2564   0.2775
  0.2846   0.2953   0.3023   0.3157   0.3448   0.3591   0.4136   0.4739
  0.6297   0.6591   0.6686   0.7151   0.9166   0.9928   0.9954   1.0307
  1.0587   1.0809   1.0870   1.1189   1.2516   1.3350   1.3850   1.4104
  1.4745   1.5261   1.5545   1.6191   1.6583   1.7957   1.8125   2.0186
  2.5969   2.7397   2.7474   2.7711   2.8709   2.8978   2.9548   3.0339
  3.2757   3.4655   3.5663   3.8172   3.8507   3.8677   3.9519   4.4467
  4.9021   4.9347   4.9677   4.9938   5.1691   5.2093   6.3437   6.3841
  6.4550   7.9961  17.2241  17.2912  17.4227  49.8769  49.9329  66.9382
189.2994
 --------------------------------------------------------------
 
          Ground-State Mulliken Net Atomic Charges

     Atom                 Charge (a.u.)
  ----------------------------------------
      1 S                     0.718704
      2 O                    -0.370708
      3 O                    -0.246740
      4 F                    -0.475177
      5 H                     0.373921
  ----------------------------------------
  Sum of atomic charges =     0.000000

 -----------------------------------------------------------------
                    Cartesian Multipole Moments
 -----------------------------------------------------------------
    Charge (ESU x 10^10)
                -0.0000
    Dipole Moment (Debye)
         X      -0.7864      Y      -0.9000      Z      -2.2028
       Tot       2.5061
    Quadrupole Moments (Debye-Ang)
        XX     -31.0728     XY      -1.9180     YY     -32.5830
        XZ       2.0026     YZ       0.3030     ZZ     -27.9218
    Octopole Moments (Debye-Ang^2)
       XXX       5.8448    XXY       1.1259    XYY      -6.6646
       YYY      14.4014    XXZ      -0.5215    XYZ      -2.0185
       YYZ       0.3720    XZZ      -0.0767    YZZ       4.0352
       ZZZ       3.9896
    Hexadecapole Moments (Debye-Ang^3)
      XXXX    -187.6096   XXXY     -21.3901   XXYY     -54.2449
      XYYY     -13.9881   YYYY    -114.1274   XXXZ       6.5614
      XXYZ      -2.3985   XYYZ       1.2150   YYYZ      -5.6006
      XXZZ     -39.5458   XYZZ      -4.9046   YYZZ     -26.2455
      XZZZ       2.8467   YZZZ      -4.7139   ZZZZ     -48.5293
 -----------------------------------------------------------------
 Calculating analytic gradient of the SCF energy
 Gradient of CDS energy
            1           2           3           4           5
    1  -0.0000297  -0.0002790   0.0000060  -0.0000095   0.0003123
    2  -0.0001707  -0.0000688   0.0000148   0.0003927  -0.0001680
    3   0.0000241  -0.0001142  -0.0000229   0.0000311   0.0000818
 Gradient of SCF Energy
            1           2           3           4           5
    1  -0.0027010  -0.0014231  -0.0025752  -0.0035086   0.0102078
    2   0.0010860  -0.0043027   0.0011595   0.0067003  -0.0046431
    3  -0.0016613  -0.0021948   0.0013447  -0.0009676   0.0034790
 Max gradient component =       1.021E-02
 RMS gradient           =       4.020E-03
 Computing fast CPCM-SWIG gradient
 Updating gradient with PCM contributions...
 -- total gradient after adding PCM contribution --
---------------------------------------------------
  Atom         X              Y              Z     
---------------------------------------------------
   1      -0.003919       0.000533       0.002826
   2       0.001053       0.000824      -0.001942
   3      -0.000268       0.000992      -0.001861
   4      -0.002927       0.002047      -0.001845
   5       0.006061      -0.004395       0.002823
---------------------------------------------------
 Number of fixed atoms: 0
 Gradient time:  CPU 7.57 s  wall 0.66 s
 ----------------------------------------------------------------
             Standard Nuclear Orientation (Angstroms)
    I     Atom           X                Y                Z
 ----------------------------------------------------------------
    1      S      -0.3638310000    -0.1825380000    -0.4506540000
    2      O       0.7833910000    -1.1370370000    -0.0916650000
    3      O      -1.4664540000    -0.2735650000     0.4679830000
    4      F       1.2756830000     1.0026980000     0.2135470000
    5      H       1.4833690000    -0.2348150000     0.1803410000
 ----------------------------------------------------------------
 Nuclear Repulsion Energy =         183.61191092 hartrees
 There are       21 alpha and       21 beta electrons
 Discretize the solute cavity surface with Lebedev spheres
	Using 110 Lebedev grid points for each H atom
	Using 194 Lebedev grid points for other atoms
	Atomic van der Waals radii will be scaled by 1.20
 Remove points where switching function is < 1.0e-08
 Keep 494 surface tesserae and discard 392 interior tesserae
 Molecular Surface Area = 93.755 Angst**2

                       Distance Matrix (Angstroms)
             S (  1)   O (  2)   O (  3)   F (  4)
   O (  2)  1.534946
   O (  3)  1.438039  2.473983
   F (  4)  2.129308  2.216748  3.035276
   H (  5)  1.952700  1.173866  2.964067  1.255259
 
 Requested basis set is 6-311+G(d,p)
 There are 35 shells and 102 basis functions
 A cutoff of  1.0D-11 yielded    603 shell pairs
 There are      5243 function pairs (      5671 Cartesian)
 Smallest overlap matrix eigenvalue = 1.40E-03
 Guess MOs from SCF MO coefficient file

 -----------------------------------------------------------------------
  General SCF calculation program by
  Eric Jon Sundstrom, Paul Horn, Yuezhi Mao, Dmitri Zuev, Alec White,
  David Stuck, Shaama M.S., Shane Yost, Joonho Lee, David Small,
  Daniel Levine, Susi Lehtola, Hugh Burton, Evgeny Epifanovsky,
  Bang C. Huynh
 -----------------------------------------------------------------------
 Exchange:     0.2500 Hartree-Fock + 0.7500 PBE
 Correlation:  1.0000 PBE
 Using SG-1 standard quadrature grid
 
 Citation of the SMD model:
 Marenich, A.V.; Cramer, C.J.; Truhlar, D.G.
 J. Phys. Chem. B 2009, 113, 6378-6396.
 iSolventCode=           1
 Solvent: water                                                           
 
 vradii
            1           2           3           4           5
    1   2.4900000   1.5200000   1.5200000   1.7300000   1.2000000
 using 12 threads for integral computing
 -------------------------------------------------------
 OpenMP Integral computing Module                
 Release: version 1.0, May 2013, Q-Chem Inc. Pittsburgh 
 -------------------------------------------------------
 A restricted SCF calculation will be
 performed using Roothaan-Hall, DIIS
 SCF converges when DIIS error is below 1.0e-08
 ---------------------------------------
  Cycle       Energy         DIIS error
 ---------------------------------------
    1    -648.8439788353      6.25e-04  Roothaan Step
 ---------------------------------------
  Cycle       Energy         DIIS error
 ---------------------------------------
    1    -648.6990867679      1.11e-03  
    2    -648.6970313873      2.11e-03  
    3    -648.7010799181      2.41e-04  
    4    -648.7010920391      2.26e-04  
    5    -648.7011391111      4.34e-05  
    6    -648.7011402478      2.68e-05  
    7    -648.7011408309      6.69e-06  
    8    -648.7011408732      8.39e-07  
    9    -648.7011408744      2.59e-07  
   10    -648.7011408746      6.95e-08  
   11    -648.7011408747      1.15e-08  
   12    -648.7011408746      2.17e-09  Convergence criterion met
 ---------------------------------------
 SCF time:   CPU 20.79s  wall 2.00s 
(3)  G-ENP(liq) elect-nuc-pol free energy of system     -648.701140875 a.u.
(4)  G-CDS(liq) cavity-dispersion-solvent structure 
     free energy                                                1.0596 kcal/mol
(6)  G-S(liq) free energy of system                     -648.699452360 a.u.
 SCF   energy in the final basis set =     -648.7011408746
 Total energy in the final basis set =     -648.6994523595
 
 --------------------------------------------------------------
 
                    Orbital Energies (a.u.)
 --------------------------------------------------------------
 
 Alpha MOs
 -- Occupied --
-89.2517 -24.7484 -19.2998 -19.2805  -8.2202  -6.1569  -6.1558  -6.1493
 -1.2293  -1.1782  -1.1091  -0.7185  -0.6047  -0.5524  -0.5394  -0.5018
 -0.4275  -0.4255  -0.3969  -0.3923  -0.3710
 -- Virtual --
 -0.1539   0.0099   0.0144   0.0357   0.0541   0.0783   0.0847   0.1539
  0.1696   0.1732   0.1813   0.1947   0.2092   0.2359   0.2564   0.2775
  0.2845   0.2954   0.3023   0.3158   0.3449   0.3592   0.4136   0.4735
  0.6300   0.6591   0.6688   0.7153   0.9170   0.9925   0.9958   1.0306
  1.0588   1.0811   1.0871   1.1193   1.2516   1.3350   1.3850   1.4105
  1.4746   1.5262   1.5543   1.6191   1.6587   1.7959   1.8112   2.0183
  2.5964   2.7398   2.7476   2.7710   2.8706   2.8974   2.9547   3.0346
  3.2768   3.4654   3.5661   3.8172   3.8507   3.8676   3.9517   4.4463
  4.9024   4.9349   4.9678   4.9941   5.1684   5.2087   6.3437   6.3840
  6.4548   7.9970  17.2243  17.2918  17.4232  49.8772  49.9328  66.9381
189.3002
 --------------------------------------------------------------
 
          Ground-State Mulliken Net Atomic Charges

     Atom                 Charge (a.u.)
  ----------------------------------------
      1 S                     0.718364
      2 O                    -0.370081
      3 O                    -0.247524
      4 F                    -0.475059
      5 H                     0.374300
  ----------------------------------------
  Sum of atomic charges =     0.000000

 -----------------------------------------------------------------
                    Cartesian Multipole Moments
 -----------------------------------------------------------------
    Charge (ESU x 10^10)
                -0.0000
    Dipole Moment (Debye)
         X      -0.7731      Y      -0.9031      Z      -2.2035
       Tot       2.5038
    Quadrupole Moments (Debye-Ang)
        XX     -31.0711     XY      -1.9269     YY     -32.5773
        XZ       2.0041     YZ       0.3045     ZZ     -27.9219
    Octopole Moments (Debye-Ang^2)
       XXX       5.9133    XXY       1.1141    XYY      -6.6379
       YYY      14.3931    XXZ      -0.5277    XYZ      -2.0188
       YYZ       0.3710    XZZ      -0.0589    YZZ       4.0313
       ZZZ       3.9883
    Hexadecapole Moments (Debye-Ang^3)
      XXXX    -187.5396   XXXY     -21.4485   XXYY     -54.2167
[...]
 -----------------------------------------------------------------
 Calculating analytic gradient of the SCF energy
 Gradient of CDS energy
            1           2           3           4           5
    1  -0.0000306  -0.0002814   0.0000051  -0.0000080   0.0003151
    2  -0.0001729  -0.0000733   0.0000155   0.0003916  -0.0001610
    3   0.0000263  -0.0001150  -0.0000234   0.0000370   0.0000751
 Gradient of SCF Energy
            1           2           3           4           5
    1   0.0011617  -0.0023464  -0.0022553  -0.0004069   0.0038469
    2   0.0004094  -0.0051574   0.0002582   0.0043622   0.0001276
    3  -0.0047746   0.0000481   0.0032865   0.0011024   0.0003376
 Max gradient component =       5.157E-03
 RMS gradient           =       2.680E-03
 Computing fast CPCM-SWIG gradient
 Updating gradient with PCM contributions...
 -- total gradient after adding PCM contribution --
---------------------------------------------------
  Atom         X              Y              Z     
---------------------------------------------------
   1       0.000051      -0.000023      -0.000015
   2      -0.000010      -0.000004       0.000077
   3      -0.000011       0.000053      -0.000009
   4       0.000035      -0.000020      -0.000005
   5      -0.000065      -0.000005      -0.000048
---------------------------------------------------
 Number of fixed atoms: 0
 Gradient time:  CPU 8.57 s  wall 0.78 s
Dipole drv :
gprntSymmMtrx error report: 
 Final Hessian.
            1           2           3           4           5           6
    1   0.6491960  -0.1206337  -0.2098327  -0.1962483   0.1435342  -0.0683340
    2  -0.1206337   0.1603840  -0.1173724   0.1035811  -0.1709237   0.0645464
    3  -0.2098327  -0.1173724   0.4221981  -0.0524154   0.0651805  -0.0813739
    4  -0.1962483   0.1035811  -0.0524154   0.2335914  -0.1028591   0.0440404
    5   0.1435342  -0.1709237   0.0651805  -0.1028591   0.3134225  -0.0356580
    6  -0.0683340   0.0645464  -0.0813739   0.0440404  -0.0356580   0.0621466
    7  -0.3807405  -0.0172582   0.2936486  -0.0428837   0.0032634   0.0185598
    8  -0.0295058  -0.0320944   0.0550009   0.0205549   0.0097222  -0.0183201
    9   0.3092369   0.0431226  -0.3224777   0.0041382  -0.0102928   0.0220889
   10  -0.0152642   0.0199253  -0.0139787   0.0450552  -0.0066430   0.0098856
   11   0.0120947  -0.0450751  -0.0015683  -0.0752458  -0.1087539  -0.0392385
   12  -0.0080802  -0.0028569  -0.0269437   0.0055461  -0.0088687   0.0181894
   13  -0.0569429   0.0143854  -0.0174216  -0.0395145  -0.0372954  -0.0041518
   14  -0.0054894   0.0877092  -0.0012407   0.0539688  -0.0434672   0.0286701
   15  -0.0229900   0.0125603   0.0085972  -0.0013092  -0.0103611  -0.0210510
            7           8           9          10          11          12
    1  -0.3807405  -0.0295058   0.3092369  -0.0152642   0.0120947  -0.0080802
    2  -0.0172582  -0.0320944   0.0431226   0.0199253  -0.0450751  -0.0028569
    3   0.2936486   0.0550009  -0.3224777  -0.0139787  -0.0015683  -0.0269437
    4  -0.0428837   0.0205549   0.0041382   0.0450552  -0.0752458   0.0055461
    5   0.0032634   0.0097222  -0.0102928  -0.0066430  -0.1087539  -0.0088687
    6   0.0185598  -0.0183201   0.0220889   0.0098856  -0.0392385   0.0181894
    7   0.4194652   0.0092922  -0.3168003  -0.0007679  -0.0071100   0.0022948
    8   0.0092922   0.0248852  -0.0357989  -0.0009062   0.0036423   0.0038527
    9  -0.3168003  -0.0357989   0.2948618   0.0070427   0.0045750   0.0098272
   10  -0.0007679  -0.0009062   0.0070427   0.0033007   0.0415175   0.0003934
   11  -0.0071100   0.0036423   0.0045750   0.0415175   0.1254439   0.0229906
   12   0.0022948   0.0038527   0.0098272   0.0003934   0.0229906   0.0196195
   13   0.0049269   0.0005649  -0.0036176  -0.0323237   0.0287436  -0.0001541
   14   0.0118126  -0.0061552  -0.0016059  -0.0538937   0.0247428  -0.0151176
   15   0.0022971  -0.0047346  -0.0043001  -0.0033430   0.0132412  -0.0206924
           13          14          15
    1  -0.0569429  -0.0054894  -0.0229900
    2   0.0143854   0.0877092   0.0125603
    3  -0.0174216  -0.0012407   0.0085972
    4  -0.0395145   0.0539688  -0.0013092
    5  -0.0372954  -0.0434672  -0.0103611
    6  -0.0041518   0.0286701  -0.0210510
    7   0.0049269   0.0118126   0.0022971
    8   0.0005649  -0.0061552  -0.0047346
    9  -0.0036176  -0.0016059  -0.0043001
   10  -0.0323237  -0.0538937  -0.0033430
   11   0.0287436   0.0247428   0.0132412
   12  -0.0001541  -0.0151176  -0.0206924
   13   0.1238541  -0.0063983   0.0253451
   14  -0.0063983  -0.0628293  -0.0107058
   15   0.0253451  -0.0107058   0.0374464
 ----------------------------------------------------------------
             Standard Nuclear Orientation (Angstroms)
    I     Atom           X                Y                Z
 ----------------------------------------------------------------
    1      S      -0.3523260794    -0.1801621412    -0.4562475865
    2      O       0.7897415092    -1.1418360784    -0.0831603316
    3      O      -1.4493419894    -0.2685595136     0.4703422832
    4      F       1.2663723466     1.0058128000     0.2211614140
    5      H       1.4587122130    -0.2405120669     0.1674562209
 ----------------------------------------------------------------
 Nuclear Repulsion Energy =         183.93962788 hartrees
 There are       21 alpha and       21 beta electrons
 old dipole drv.
            1           2           3           4           5           6
    1   2.9235698  -0.1016651  -0.2366356  -1.3497322   0.3322195  -0.3279284
    2  -0.1641293   1.7158699  -0.1931341   0.3282234  -1.1212289   0.1787237
    3  -0.1244359  -0.0729014   1.2977328   0.0792348  -0.0115059  -0.5752905
            7           8           9          10          11          12
    1  -1.1575393  -0.0583358   0.7252949  -1.1199679  -0.4621632  -0.2604598
    2   0.1194676  -0.3472291   0.0861813  -0.5035051  -1.2483186  -0.2432698
    3   0.1269389   0.1327223  -0.6094098  -0.1134171  -0.1125276  -0.5795509
           13          14          15
    1   0.7036706   0.2899444   0.0997288
    2   0.2199433   1.0009045   0.1714989
    3   0.0316793   0.0642125   0.4665175
 New transposed dipole drv.
            1           2           3
    1   2.9235698  -0.1641293  -0.1244359
    2  -0.1016651   1.7158699  -0.0729014
    3  -0.2366356  -0.1931341   1.2977328
    4  -1.3497322   0.3282234   0.0792348
    5   0.3322195  -1.1212289  -0.0115059
    6  -0.3279284   0.1787237  -0.5752905
    7  -1.1575393   0.1194676   0.1269389
    8  -0.0583358  -0.3472291   0.1327223
    9   0.7252949   0.0861813  -0.6094098
   10  -1.1199679  -0.5035051  -0.1134171
   11  -0.4621632  -1.2483186  -0.1125276
   12  -0.2604598  -0.2432698  -0.5795509
   13   0.7036706   0.2199433   0.0316793
   14   0.2899444   1.0009045   0.0642125
   15   0.0997288   0.1714989   0.4665175
FINAL TENSOR RESULT:
Order 2, Length 15
    Atom      X          Y          Z
     1 Order 1, Length 15
    Atom      X          Y          Z
     1    6.491960318726591e-01  -1.206337062154828e-01  -2.098326874291198e-01
     2   -1.962483375044932e-01   1.435341796288565e-01  -6.833404354957510e-02
     3   -3.807404544840259e-01  -2.950584155167426e-02   3.092369325190487e-01
     4   -1.526423227178786e-02   1.209465117035317e-02  -8.080174812796749e-03
     5   -5.694294847201435e-02  -5.489351311293384e-03  -2.299002017990699e-02

Order 1, Length 15
    Atom      X          Y          Z
     1   -1.206337062154828e-01   1.603839592112225e-01  -1.173724020618614e-01
     2    1.035811194490293e-01  -1.709237197266620e-01   6.454643931567954e-02
     3   -1.725820772128840e-02  -3.209442553309783e-02   4.312261901392317e-02
     4    1.992534643550190e-02  -4.507513090553902e-02  -2.856915889920047e-03
     5    1.438537596253178e-02   8.770924567158923e-02   1.256032366684698e-02

Order 1, Length 15
    Atom      X          Y          Z
     1   -2.098326874291198e-01  -1.173724020618614e-01   4.221980676576871e-01
     2   -5.241542436813669e-02   6.518048586671321e-02  -8.137390143412571e-02
     3    2.936486025654567e-01   5.500091988613558e-02  -3.224776993178484e-01
     4   -1.397871092398807e-02  -1.568309915745758e-03  -2.694370593661608e-02
     5   -1.742163592189942e-02  -1.240709477813950e-03   8.597158442340500e-03


     2 Order 1, Length 15
    Atom      X          Y          Z
     1   -1.962483375044932e-01   1.035811194490293e-01  -5.241542436813669e-02
     2    2.335913638166653e-01  -1.028591242786402e-01   4.404042137138588e-02
     3   -4.288371052333074e-02   2.055488968551159e-02   4.138194034811814e-03
     4    4.505515804581313e-02  -7.524579689252811e-02   5.546064452749962e-03
     5   -3.951451906094233e-02   5.396882406098931e-02  -1.309174914526197e-03

Order 1, Length 15
    Atom      X          Y          Z
     1    1.435341796288565e-01  -1.709237197266620e-01   6.518048586671321e-02
     2   -1.028591242786402e-01   3.134224942520816e-01  -3.565797554844548e-02
     3    3.263373213236579e-03   9.722180011525491e-03  -1.029277964686570e-02
     4   -6.642960437295559e-03  -1.087538707275000e-01  -8.868735227732167e-03
     5   -3.729539419915740e-02  -4.346723290197010e-02  -1.036105544735327e-02

Order 1, Length 15
    Atom      X          Y          Z
     1   -6.833404354957510e-02   6.454643931567954e-02  -8.137390143412571e-02
     2    4.404042137138588e-02  -3.565797554844548e-02   6.214664742470261e-02
     3    1.855979161550207e-02  -1.832008652129307e-02   2.208892802520746e-02
     4    9.885567343945616e-03  -3.923848650544259e-02   1.818942776341744e-02
     5   -4.151762380553385e-03   2.867006332682721e-02  -2.105104728648263e-02


     3 Order 1, Length 15
    Atom      X          Y          Z
     1   -3.807404544840259e-01  -1.725820772128840e-02   2.936486025654567e-01
     2   -4.288371052333074e-02   3.263373213236579e-03   1.855979161550207e-02
     3    4.194652422212073e-01   9.292235000418776e-03  -3.168002915901064e-01
     4   -7.679044902861270e-04  -7.109968606945663e-03   2.294823108030948e-03
     5    4.926891027644509e-03   1.181255347044838e-02   2.297062616705864e-03

Order 1, Length 15
    Atom      X          Y          Z
     1   -2.950584155167426e-02  -3.209442553309783e-02   5.500091988613558e-02
     2    2.055488968551159e-02   9.722180011525491e-03  -1.832008652129307e-02
     3    9.292235000418776e-03   2.488522989916190e-02  -3.579894341880462e-02
     4   -9.061506695132490e-04   3.642260424129748e-03   3.852721716324522e-03
     5    5.648654868166425e-04  -6.155219956906348e-03  -4.734601341453414e-03

Order 1, Length 15
    Atom      X          Y          Z
     1    3.092369325190487e-01   4.312261901392317e-02  -3.224776993178484e-01
     2    4.138194034811814e-03  -1.029277964686570e-02   2.208892802520746e-02
     3   -3.168002915901064e-01  -3.579894341880462e-02   2.948617775902881e-01
     4    7.042734247975109e-03   4.575023817134279e-03   9.827167081481299e-03
     5   -3.617641708970042e-03  -1.605926697408878e-03  -4.300131906250931e-03


     4 Order 1, Length 15
    Atom      X          Y          Z
     1   -1.526423227178786e-02   1.992534643550190e-02  -1.397871092398807e-02
     2    4.505515804581313e-02  -6.642960437295559e-03   9.885567343945616e-03
     3   -7.679044902861270e-04  -9.061506695132490e-04   7.042734247975109e-03
     4    3.300672436758320e-03   4.151752607120461e-02   3.933583133829568e-04
     5   -3.232367048282431e-02  -5.389370137843384e-02  -3.342974921124087e-03

Order 1, Length 15
    Atom      X          Y          Z
     1    1.209465117035317e-02  -4.507513090553902e-02  -1.568309915745758e-03
     2   -7.524579689252811e-02  -1.087538707275000e-01  -3.923848650544259e-02
     3   -7.109968606945663e-03   3.642260424129748e-03   4.575023817134279e-03
     4    4.151752607120461e-02   1.254439444005061e-01   2.299060069114696e-02
     5    2.874358951378410e-02   2.474275328437174e-02   1.324116756674460e-02

Order 1, Length 15
    Atom      X          Y          Z
     1   -8.080174812796749e-03  -2.856915889920047e-03  -2.694370593661608e-02
     2    5.546064452749962e-03  -8.868735227732167e-03   1.818942776341744e-02
     3    2.294823108030948e-03   3.852721716324522e-03   9.827167081481299e-03
     4    3.933583133829568e-04   2.299060069114696e-02   1.961948748445311e-02
     5   -1.540824046416480e-04  -1.511764211553342e-02  -2.069240900212536e-02


     5 Order 1, Length 15
    Atom      X          Y          Z
     1   -5.694294847201435e-02   1.438537596253178e-02  -1.742163592189942e-02
     2   -3.951451906094233e-02  -3.729539419915740e-02  -4.151762380553385e-03
     3    4.926891027644509e-03   5.648654868166425e-04  -3.617641708970042e-03
     4   -3.232367048282431e-02   2.874358951378410e-02  -1.540824046416480e-04
     5    1.238541459774265e-01  -6.398326051599273e-03   2.534507291485818e-02

Order 1, Length 15
    Atom      X          Y          Z
     1   -5.489351311293384e-03   8.770924567158923e-02  -1.240709477813950e-03
     2    5.396882406098931e-02  -4.346723290197010e-02   2.867006332682721e-02
     3    1.181255347044838e-02  -6.155219956906348e-03  -1.605926697408878e-03
     4   -5.389370137843384e-02   2.474275328437174e-02  -1.511764211553342e-02
     5   -6.398326051599273e-03  -6.282930686293903e-02  -1.070579499448815e-02

Order 1, Length 15
    Atom      X          Y          Z
     1   -2.299002017990699e-02   1.256032366684698e-02   8.597158442340500e-03
     2   -1.309174914526197e-03  -1.036105544735327e-02  -2.105104728648263e-02
     3    2.297062616705864e-03  -4.734601341453414e-03  -4.300131906250931e-03
     4   -3.342974921124087e-03   1.324116756674460e-02  -2.069240900212536e-02
     5    2.534507291485818e-02  -1.070579499448815e-02   3.744644677331230e-02




 # Finishing finite difference calculation for IDERIV #
 ######################################################
 ######################################################
 Requested basis set is 6-311+G(d,p)
 There are 35 shells and 102 basis functions
 **********************************************************************
 **                                                                  **
 **                       VIBRATIONAL ANALYSIS                       **
 **                       --------------------                       **
 **                                                                  **
 **        VIBRATIONAL FREQUENCIES (CM**-1) AND NORMAL MODES         **
 **     FORCE CONSTANTS (mDYN/ANGSTROM) AND REDUCED MASSES (AMU)     **
 **                  INFRARED INTENSITIES (KM/MOL)                   **
 **                                                                  **
 **********************************************************************
 

 Mode:                 1                      2                      3
 Frequency:     -1388.93                 115.19                 416.98
 Force Cnst:      1.2708                 0.1206                 1.4749
 Red. Mass:       1.1180                15.4235                14.3974
 IR Active:          YES                    YES                    YES
 IR Intens:      848.247                  7.219                421.863
 Raman Active:       YES                    YES                    YES
               X      Y      Z        X      Y      Z        X      Y      Z
 S         -0.003 -0.033 -0.002    0.057 -0.179 -0.177   -0.283 -0.253 -0.247
 O         -0.036  0.023 -0.019    0.100 -0.101 -0.150    0.009  0.121  0.037
 O         -0.009  0.005  0.001    0.358  0.523  0.245    0.044  0.056  0.143
 F          0.042 -0.021  0.013   -0.472 -0.061  0.200    0.436  0.311  0.263
 H          0.028  0.992  0.097   -0.164  0.135  0.343   -0.087 -0.624 -0.002
 TransDip   0.326  0.868  0.101    0.077  0.036 -0.014   -0.428 -0.470 -0.169

 Mode:                 4                      5                      6
 Frequency:       489.35                 649.88                 930.93
 Force Cnst:      1.8408                 3.7312                 0.5740
 Red. Mass:      13.0469                14.9945                 1.1241
 IR Active:          YES                    YES                    YES
 IR Intens:       48.769                  8.230                223.925
 Raman Active:       YES                    YES                    YES
               X      Y      Z        X      Y      Z        X      Y      Z
 S          0.010  0.187 -0.258    0.167 -0.020  0.084   -0.011  0.016 -0.000
 O         -0.376  0.070  0.329   -0.420 -0.563 -0.149    0.046 -0.031 -0.035
 O          0.428 -0.329  0.176    0.089 -0.031 -0.047   -0.028 -0.008  0.013
 F         -0.048 -0.101 -0.016    0.016  0.526  0.030    0.018  0.009 -0.031
 H         -0.254  0.088  0.485   -0.355  0.144 -0.115   -0.270 -0.050  0.958
 TransDip   0.040  0.187 -0.115    0.071 -0.057  0.013   -0.168  0.110  0.435

 Mode:                 7                      8                      9
 Frequency:      1016.36                1296.71                1879.84
 Force Cnst:      4.6407                16.5581                 2.1622
 Red. Mass:       7.6248                16.7139                 1.0385
 IR Active:          YES                    YES                    YES
 IR Intens:      378.339                384.337                477.160
 Raman Active:       YES                    YES                    YES
               X      Y      Z        X      Y      Z        X      Y      Z
 S          0.145 -0.179  0.109   -0.331 -0.004  0.266   -0.018  0.004 -0.002
 O         -0.339  0.400 -0.157    0.059 -0.028  0.005   -0.019 -0.022 -0.005
 O          0.045  0.019 -0.070    0.620  0.049 -0.533    0.008 -0.000 -0.006
 F          0.005 -0.020 -0.020    0.003 -0.017 -0.011   -0.012  0.014 -0.002
 H         -0.035 -0.606  0.510   -0.337  0.108  0.139    0.962 -0.039  0.266
 TransDip   0.294 -0.524  0.166   -0.590  0.034  0.212    0.642  0.231  0.156

 STANDARD THERMODYNAMIC QUANTITIES AT   298.15 K  AND     1.00 ATM

   This Molecule has  1 Imaginary Frequencies
   Zero point vibrational energy:        9.714 kcal/mol

   Atom    1 Element S  Has Mass   31.97207
   Atom    2 Element O  Has Mass   15.99491
   Atom    3 Element O  Has Mass   15.99491
   Atom    4 Element F  Has Mass   18.99840
   Atom    5 Element H  Has Mass    1.00783
   Molecular Mass:    83.968120 amu
   Principal axes and moments of inertia in amu*Bohr^2:
                             1           2           3
    Eigenvalues --      161.31401   345.69297   438.03901
          X               0.92951    -0.36176     0.07174
          Y               0.36849     0.90289    -0.22138
          Z               0.01531     0.23221     0.97254
   Rotational Symmetry Number is   1
   The Molecule is an Asymmetric Top
   Translational Enthalpy:        0.889 kcal/mol
   Rotational Enthalpy:           0.889 kcal/mol
   Vibrational Enthalpy:         10.631 kcal/mol
   gas constant (RT):             0.592 kcal/mol
   Translational Entropy:        39.197  cal/mol.K
   Rotational Entropy:           24.705  cal/mol.K
   Vibrational Entropy:           5.379  cal/mol.K

   Total Enthalpy:               13.001 kcal/mol
   Total Entropy:                69.281  cal/mol.K
Archival summary:
1\1\DmitryEeminsMBP\FREQ\ProcedureUnspecified\6-311+G**\1121\ThuMar2616:44:062020ThuMar2616:44:062020\0\\#,FREQ,ProcedureUnspecified,6-311+G**,\\0,1\S\O,1,1.43869\O,1,1.53894,2,111.798\H,3,1.15009,1,89.7,2,-112.364,0\F,4,1.26222,3,133.984,1,5.54086,0\\\@

 Total job time:  84.82s(wall), 980.63s(cpu) 
 Thu Mar 26 16:44:06 2020

        *************************************************************
        *                                                           *
        *  Thank you very much for using Q-Chem.  Have a nice day.  *
        *                                                           *
        *************************************************************


