
                                 *****************
                                 * O   R   C   A *
                                 *****************

           --- An Ab Initio, DFT and Semiempirical electronic structure package ---

                  #######################################################
                  #                        -***-                        #
                  #          Department of theory and spectroscopy      #
                  #               Directorship: Frank Neese             #
                  #        Max Planck Institute fuer Kohlenforschung    #
                  #                Kaiser Wilhelm Platz 1               #
                  #                 D-45470 Muelheim/Ruhr               #
                  #                      Germany                        #
                  #                                                     #
                  #                  All rights reserved                #
                  #                        -***-                        #
                  #######################################################


                         Program Version 4.2.1 -  RELEASE  -


 With contributions from (in alphabetic order):
   Daniel Aravena         : Magnetic Suceptibility
   Michael Atanasov       : Ab Initio Ligand Field Theory (pilot matlab implementation)
   Alexander A. Auer      : GIAO ZORA, VPT2
   Ute Becker             : Parallelization
   Giovanni Bistoni       : ED, misc. LED, open-shell LED, HFLD
   Martin Brehm           : Molecular dynamics
   Dmytro Bykov           : SCF Hessian
   Vijay G. Chilkuri      : MRCI spin determinant printing, contributions to CSF-ICE
   Dipayan Datta          : RHF DLPNO-CCSD density
   Achintya Kumar Dutta   : EOM-CC, STEOM-CC
   Dmitry Ganyushin       : Spin-Orbit,Spin-Spin,Magnetic field MRCI
   Miquel Garcia          : C-PCM Hessian, Gaussian charge scheme
   Yang Guo               : DLPNO-NEVPT2, CIM, IAO-localization
   Andreas Hansen         : Spin unrestricted coupled pair/coupled cluster methods
   Benjamin Helmich-Paris : CASSCF linear response (MC-RPA)
   Lee Huntington         : MR-EOM, pCC
   Robert Izsak           : Overlap fitted RIJCOSX, COSX-SCS-MP3, EOM
   Christian Kollmar      : KDIIS, OOCD, Brueckner-CCSD(T), CCSD density
   Simone Kossmann        : Meta GGA functionals, TD-DFT gradient, OOMP2, MP2 Hessian
   Martin Krupicka        : AUTO-CI
   Lucas Lang             : DCDCAS
   Dagmar Lenk            : GEPOL surface, SMD
   Dimitrios Liakos       : Extrapolation schemes; Compound Job, initial MDCI parallelization
   Dimitrios Manganas     : Further ROCIS development; embedding schemes
   Dimitrios Pantazis     : SARC Basis sets
   Taras Petrenko         : DFT Hessian,TD-DFT gradient, ASA, ECA, R-Raman, ABS, FL, XAS/XES, NRVS
   Peter Pinski           : DLPNO-MP2, DLPNO-MP2 Gradient
   Christoph Reimann      : Effective Core Potentials
   Marius Retegan         : Local ZFS, SOC
   Christoph Riplinger    : Optimizer, TS searches, QM/MM, DLPNO-CCSD(T), (RO)-DLPNO pert. Triples
   Tobias Risthaus        : Range-separated hybrids, TD-DFT gradient, RPA, STAB
   Michael Roemelt        : Original ROCIS implementation
   Masaaki Saitow         : Open-shell DLPNO-CCSD energy and density
   Barbara Sandhoefer     : DKH picture change effects
   Avijit Sen             : IP-ROCIS
   Kantharuban Sivalingam : CASSCF convergence, NEVPT2, FIC-MRCI
   Bernardo de Souza      : ESD, SOC TD-DFT
   Georgi Stoychev        : AutoAux, RI-MP2 NMR
   Willem Van den Heuvel  : Paramagnetic NMR
   Boris Wezisla          : Elementary symmetry handling
   Frank Wennmohs         : Technical directorship


 We gratefully acknowledge several colleagues who have allowed us to
 interface, adapt or use parts of their codes:
   Stefan Grimme, W. Hujo, H. Kruse,             : VdW corrections, initial TS optimization,
                  C. Bannwarth                     DFT functionals, gCP, sTDA/sTD-DF
   Ed Valeev, F. Pavosevic, A. Kumar             : LibInt (2-el integral package), F12 methods
   Garnet Chan, S. Sharma, J. Yang, R. Olivares  : DMRG
   Ulf Ekstrom                                   : XCFun DFT Library
   Mihaly Kallay                                 : mrcc  (arbitrary order and MRCC methods)
   Andreas Klamt, Michael Diedenhofen            : otool_cosmo (COSMO solvation model)
   Jiri Pittner, Ondrej Demel                    : Mk-CCSD
   Frank Weinhold                                : gennbo (NPA and NBO analysis)
   Christopher J. Cramer and Donald G. Truhlar   : smd solvation model
   Lars Goerigk                                  : TD-DFT with DH, B97 family of functionals
   V. Asgeirsson, H. Jonsson                     : NEB implementation
   FAccTs GmbH                                   : IRC, NEB, NEB-TS, Multilevel, MM, QM/MM, CI optimization
   S Lehtola, MJT Oliveira, MAL Marques          : LibXC Library


 Your calculation uses the libint2 library for the computation of 2-el integrals
 For citations please refer to: http://libint.valeyev.net

 Your ORCA version has been built with support for libXC version: 4.2.3
 For citations please refer to: https://tddft.org/programs/libxc/

 This ORCA versions uses:
   CBLAS   interface :  Fast vector & matrix operations
   LAPACKE interface :  Fast linear algebra routines
   SCALAPACK package :  Parallel linear algebra routines




***************************************
The coordinates will be read from file: start.xyz
***************************************


----- Orbital basis set information -----
Your calculation utilizes the basis: def2-SVP
   F. Weigend and R. Ahlrichs, Phys. Chem. Chem. Phys. 7, 3297 (2005).

================================================================================
                                        WARNINGS
                       Please study these warnings very carefully!
================================================================================


IMPORTANT NOTE: CASSCF must signal convergence a subsequent CASPT2/NEVPT2! 
                Set maxiter=1 to run CASPT2/NEVPT2 with arbitrary orbitals.


INFO   : the flag for use of LIBINT has been found!

================================================================================
                                       INPUT FILE
================================================================================
NAME = orc.in
|  1> 
|  2> ! def2-SVP moread
|  3> %moinp "natorb/_scf.uno"
|  4> 
|  5> %casscf
|  6>   nel 4
|  7>   norb 4
|  8>   mult 3, 1
|  9>   nroots 2, 2
| 10>   PTMethod SC_NEVPT2
| 11> end
| 12> 
| 13> %maxcore 2000
| 14> %pal nprocs 1 end
| 15> 
| 16> %base "_cas44"
| 17> 
| 18> *xyzfile 0 1 start.xyz
| 19> 
| 20> 
| 21>                          ****END OF INPUT****
================================================================================

                       ****************************
                       * Single Point Calculation *
                       ****************************

---------------------------------
CARTESIAN COORDINATES (ANGSTROEM)
---------------------------------
  C     -1.366064    0.491143    0.000000
  C     -0.740284   -0.727867    0.000000
  C      0.681238   -0.727867    0.000000
  C      1.307018    0.491143    0.000000
  C      0.681238    1.710153    0.000000
  C     -0.740284    1.710153    0.000000
  H     -1.275713    2.653056    0.000000
  H      1.216667    2.653056    0.000000
  H      1.216667   -1.670770    0.000000
  H     -1.275713   -1.670770    0.000000

----------------------------
CARTESIAN COORDINATES (A.U.)
----------------------------
  NO LB      ZA    FRAG     MASS         X           Y           Z
   0 C     6.0000    0    12.011   -2.581486    0.928126    0.000000
   1 C     6.0000    0    12.011   -1.398934   -1.375469    0.000000
   2 C     6.0000    0    12.011    1.287353   -1.375469    0.000000
   3 C     6.0000    0    12.011    2.469906    0.928126    0.000000
   4 C     6.0000    0    12.011    1.287353    3.231720    0.000000
   5 C     6.0000    0    12.011   -1.398934    3.231720    0.000000
   6 H     1.0000    0     1.008   -2.410749    5.013550    0.000000
   7 H     1.0000    0     1.008    2.299168    5.013550    0.000000
   8 H     1.0000    0     1.008    2.299168   -3.157298    0.000000
   9 H     1.0000    0     1.008   -2.410749   -3.157298    0.000000

--------------------------------
INTERNAL COORDINATES (ANGSTROEM)
--------------------------------
 C      0   0   0     0.000000000000     0.00000000     0.00000000
 C      1   0   0     1.370250002266     0.00000000     0.00000000
 C      2   1   0     1.421521840000   117.17374138     0.00000000
 C      3   2   1     1.370249993369   117.17374157     0.00000000
 C      4   3   2     1.370249989040   125.65251629     0.00000000
 C      1   2   3     1.370249993607   125.65251611     0.00000000
 H      6   1   2     1.084320894887   123.23610296   180.00000000
 H      5   4   3     1.084320894887   123.23610334   180.00000000
 H      3   2   1     1.084320908521   119.59015473   180.00000000
 H      2   1   3     1.084320917217   123.23610415   180.00000000

---------------------------
INTERNAL COORDINATES (A.U.)
---------------------------
 C      0   0   0     0.000000000000     0.00000000     0.00000000
 C      1   0   0     2.589397239287     0.00000000     0.00000000
 C      2   1   0     2.686286970988   117.17374138     0.00000000
 C      3   2   1     2.589397222476   117.17374157     0.00000000
 C      4   3   2     2.589397214294   125.65251629     0.00000000
 C      1   2   3     2.589397222925   125.65251611     0.00000000
 H      6   1   2     2.049069532625   123.23610296   180.00000000
 H      5   4   3     2.049069532625   123.23610334   180.00000000
 H      3   2   1     2.049069558389   119.59015473   180.00000000
 H      2   1   3     2.049069574822   123.23610415   180.00000000

---------------------
BASIS SET INFORMATION
---------------------
There are 2 groups of distinct atoms

 Group   1 Type C   : 7s4p1d contracted to 3s2p1d pattern {511/31/1}
 Group   2 Type H   : 4s1p contracted to 2s1p pattern {31/1}

Atom   0C    basis set group =>   1
Atom   1C    basis set group =>   1
Atom   2C    basis set group =>   1
Atom   3C    basis set group =>   1
Atom   4C    basis set group =>   1
Atom   5C    basis set group =>   1
Atom   6H    basis set group =>   2
Atom   7H    basis set group =>   2
Atom   8H    basis set group =>   2
Atom   9H    basis set group =>   2
------------------------------------------------------------------------------
                           ORCA GTO INTEGRAL CALCULATION
------------------------------------------------------------------------------

                         BASIS SET STATISTICS AND STARTUP INFO

 # of primitive gaussian shells          ...   92
 # of primitive gaussian functions       ...  172
 # of contracted shells                  ...   48
 # of contracted basis functions         ...  104
 Highest angular momentum                ...    2
 Maximum contraction depth               ...    5
 Integral package used                   ... LIBINT
 Integral threshhold            Thresh   ...  1.000e-10
 Primitive cut-off              TCut     ...  1.000e-11


------------------------------ INTEGRAL EVALUATION ----------------------------


 * One electron integrals 
 Pre-screening matrix                    ... done
 Shell pair data                         ... done (   0.000 sec)

-------------------------------------------------------------------------------
                                 ORCA SCF
-------------------------------------------------------------------------------

------------
SCF SETTINGS
------------
Hamiltonian:
 Ab initio Hamiltonian  Method          .... Hartree-Fock(GTOs)


General Settings:
 Integral files         IntName         .... _cas44
 Hartree-Fock type      HFTyp           .... CASSCF
 Total Charge           Charge          ....    0
 Multiplicity           Mult            ....    1
 Number of Electrons    NEL             ....   40
 Basis Dimension        Dim             ....  104
 Nuclear Repulsion      ENuc            ....    185.6919743588 Eh


Diagonalization of the overlap matrix:
Smallest eigenvalue                        ... 3.693e-04
Time for diagonalization                   ...    0.018 sec
Threshold for overlap eigenvalues          ... 1.000e-08
Number of eigenvalues below threshold      ... 0
Time for construction of square roots      ...    0.001 sec
Total time needed                          ...    0.019 sec

---------------------
INITIAL GUESS: MOREAD
---------------------
Guess MOs are being read from file: natorb/_scf.uno
Input Geometry matches current geometry (good)
Input basis set matches current basis set (good)
MOs were renormalized
Gram-Schmidt orthogonalization of all MOs with pivot on actives
                      ------------------
                      INITIAL GUESS DONE (   0.0 sec)
                      ------------------


 ... the calculation is a CASSCF calculation -I'm leaving here GOOD LUCK!!!

-------------------------------------------------------------------------------
                              ORCA-CASSCF
-------------------------------------------------------------------------------

Setting up the integral package       ... done
Building the CAS space                ... done (13 configurations for Mult=3)
Building the CAS space                ... done (19 configurations for Mult=1)

 CASSCF (estimated) memory needed     ... 0.8 MB
 NEVPT2 (estimated) memory needed     ... 4.9 MB


SYSTEM-SPECIFIC SETTINGS:
Number of active electrons          ...    4
Number of active orbitals           ...    4
Total number of electrons           ...   40
Total number of orbitals            ...  104

Determined orbital ranges:
   Internal       0 -   17 (  18 orbitals)
   Active        18 -   21 (   4 orbitals)
   External      22 -  103 (  82 orbitals)
Number of rotation parameters      ...   1876

CI-STEP:
CI strategy                         ... General CI
Number of multiplicity blocks       ...    2
BLOCK  1 WEIGHT=   0.5000
  Multiplicity                      ...    3
  #(Configurations)                 ...   13
  #(CSFs)                           ...   15
  #(Roots)                          ...    2
    ROOT=0 WEIGHT=    0.250000
    ROOT=1 WEIGHT=    0.250000

BLOCK  2 WEIGHT=   0.5000
  Multiplicity                      ...    1
  #(Configurations)                 ...   19
  #(CSFs)                           ...   20
  #(Roots)                          ...    2
    ROOT=0 WEIGHT=    0.250000
    ROOT=1 WEIGHT=    0.250000

  PrintLevel                        ...    1
  N(GuessMat)                       ...       512
  MaxDim(CI)                        ...        10
  MaxIter(CI)                       ...        64
  Energy Tolerance CI               ...  1.00e-08
  Residual Tolerance CI             ...  1.00e-08
  Shift(CI)                         ...  1.00e-04

INTEGRAL-TRANSFORMATION-STEP:
  Algorithm                         ... EXACT

ORBITAL-IMPROVEMENT-STEP:
  Algorithm                         ... SuperCI(PT)
  Default Parametrization           ... CAYLEY
  Act-Act rotations                 ... depends on algorithm used

  Note: SuperCI(PT) will ignore FreezeIE, FreezeAct and FreezeGrad. In general Default settings are encouraged.
        In conjunction with ShiftUp, ShiftDn or GradScaling the performance of SuperCI(PT) is less optimal.  

  MaxRot                            ... 2.00e-01 
  Max. no of vectors (DIIS)         ... 15
  DThresh (cut-off) metric          ... 1.00e-06
  Switch step at gradient           ...  3.00e-02 
  Switch step at iteration          ...        50   
  Switch step to                    ... SuperCI(PT)    

SCF-SETTINGS:
  Incremental                       ... on
  RIJCOSX approximation             ... off
  RI-JK approximation               ... off
  AO integral handling              ... DIRECT
  Integral Neglect Thresh           ...  1.00e-10
  Primitive cutoff TCut             ...  1.00e-11
  Energy convergence tolerance      ...  1.00e-07
  Orbital gradient convergence      ...  1.00e-03
  Max. number of iterations         ...        75  

PT2-SETTINGS:
  A PT2 calculation will be performed on top of the CASSCF wave function (PT2 = SC-NEVPT2)   
 CI step strategy                   ... General CI
  D4C handling                      ... on the fly 
  CI truncation for D4C at          ...  1.00e-10
  CI truncation for D3  at          ...  1.00e-14
  Orbitals                          ... canonical for each state 
  Last  frozen  orbital             ... 5
  First deleted orbital             ... 104

PROPERTIES-SETTINGS:
  QDPT diagonal energies            ... NEVPT2 energies 

FINAL ORBITALS:
  Active   Orbitals                 ... natural 
  Internal Orbitals                 ... canonical 
  External Orbitals                 ... canonical 

------------------
CAS-SCF ITERATIONS
------------------


MACRO-ITERATION   1: 
   --- Inactive Energy E0 = -225.97349764 Eh
CI-ITERATION   0: 
  -229.206712537   0.000000000000 (    0.00)
  -229.069825986   0.000000000000
   CI-PROBLEM SOLVED
   DENSITIES MADE
CI-ITERATION   0: 
  -229.212797362   0.000000000000 (    0.00)
  -229.035113424   0.000000000000
   CI-PROBLEM SOLVED
   DENSITIES MADE

                 <<<<<<<<<<<<<<<<<<INITIAL CI STATE CHECK>>>>>>>>>>>>>>>>>>

BLOCK  1 MULT= 3 NROOTS= 2 
ROOT   0:  E=    -229.2067125370 Eh
      0.97506 [     0]: 2110
      0.01587 [    12]: 0112
      0.00526 [     4]: 1201
      0.00381 [     8]: 1021
ROOT   1:  E=    -229.0698259862 Eh  3.725 eV  30043.1 cm**-1
      0.90243 [     3]: 1210
      0.06357 [    11]: 0121
      0.02791 [     1]: 2101
      0.00609 [     9]: 1012

BLOCK  2 MULT= 1 NROOTS= 2 
ROOT   0:  E=    -229.2127973620 Eh
      0.62470 [     0]: 2200
      0.34128 [     3]: 2020
      0.01780 [     9]: 1111
      0.00864 [    15]: 0202
      0.00736 [    18]: 0022
ROOT   1:  E=    -229.0351134244 Eh  4.835 eV  38997.1 cm**-1
      0.94599 [     6]: 1210
      0.03261 [    16]: 0121
      0.01724 [     2]: 2101
      0.00415 [    12]: 1012

                 <<<<<<<<<<<<<<<<<<INITIAL CI STATE CHECK>>>>>>>>>>>>>>>>>>

   E(CAS)=  -229.131112327 Eh DE=     0.000000000
   --- Energy gap subspaces: Ext-Act = -0.049   Act-Int = 0.084
   N(occ)=  1.46456 1.53106 0.94120 0.06318
   ||g|| =      0.724621840 Max(G)=     0.164153742 Rot=29,3
   --- Orbital Update [SuperCI(PT)]
   --- Canonicalize Internal Space
   --- Canonicalize External Space
   --- SX_PT (Skipped TA=0 IT=0): ||X|| =      0.129073193 Max(X)(37,21) =      0.050011450 
   --- SFit(Active Orbitals)

MACRO-ITERATION   2: 
   --- Inactive Energy E0 = -225.90936127 Eh
CI-ITERATION   0: 
  -229.228016075   0.000000000000 (    0.00)
  -229.105186119   0.000000000000
   CI-PROBLEM SOLVED
   DENSITIES MADE
CI-ITERATION   0: 
  -229.235349449   0.000000000000 (    0.00)
  -229.068921863   0.000000000000
   CI-PROBLEM SOLVED
   DENSITIES MADE
   E(CAS)=  -229.159368377 Eh DE=    -0.028256049
   --- Energy gap subspaces: Ext-Act = -0.021   Act-Int = 0.077
   N(occ)=  1.45404 1.52836 0.94616 0.07144
   ||g|| =      0.139043310 Max(G)=     0.040586563 Rot=23,18
   --- Orbital Update [SuperCI(PT)]
   --- Canonicalize Internal Space
   --- Canonicalize External Space
   --- SX_PT (Skipped TA=0 IT=0): ||X|| =      0.036489291 Max(X)(27,18) =      0.017778056 
   --- SFit(Active Orbitals)

MACRO-ITERATION   3: 
   --- Inactive Energy E0 = -225.93780528 Eh
CI-ITERATION   0: 
  -229.231334465   0.000000000000 (    0.00)
  -229.106631962   0.000000000000
   CI-PROBLEM SOLVED
   DENSITIES MADE
CI-ITERATION   0: 
  -229.238490018   0.000000000000 (    0.00)
  -229.068768763   0.000000000000
   CI-PROBLEM SOLVED
   DENSITIES MADE
   E(CAS)=  -229.161306302 Eh DE=    -0.001937926
   --- Energy gap subspaces: Ext-Act = -0.024   Act-Int = 0.085
   N(occ)=  1.45085 1.52186 0.95030 0.07699
   ||g|| =      0.049331942 Max(G)=     0.023345136 Rot=21,16
   --- Orbital Update [SuperCI(PT)]
   --- Canonicalize Internal Space
   --- Canonicalize External Space
   --- SX_PT (Skipped TA=0 IT=0): ||X|| =      0.015985947 Max(X)(20,11) =     -0.009194911 
   --- SFit(Active Orbitals)

MACRO-ITERATION   4: 
   --- Inactive Energy E0 = -225.92566144 Eh
CI-ITERATION   0: 
  -229.230999658   0.000000000000 (    0.00)
  -229.107875936   0.000000000000
   CI-PROBLEM SOLVED
   DENSITIES MADE
CI-ITERATION   0: 
  -229.238296288   0.000000000000 (    0.00)
  -229.069402308   0.000000000000
   CI-PROBLEM SOLVED
   DENSITIES MADE
   E(CAS)=  -229.161643548 Eh DE=    -0.000337245
   --- Energy gap subspaces: Ext-Act = -0.019   Act-Int = 0.083
   N(occ)=  1.44885 1.52031 0.95184 0.07900
   ||g|| =      0.014083722 Max(G)=     0.005770331 Rot=23,18
   --- Orbital Update [SuperCI(PT)]
   --- Canonicalize Internal Space
   --- Canonicalize External Space
   --- SX_PT (Skipped TA=0 IT=0): ||X|| =      0.004158618 Max(X)(27,18) =      0.002430550 
   --- SFit(Active Orbitals)

MACRO-ITERATION   5: 
   --- Inactive Energy E0 = -225.92523755 Eh
CI-ITERATION   0: 
  -229.231193254   0.000000000000 (    0.00)
  -229.107954359   0.000000000000
   CI-PROBLEM SOLVED
   DENSITIES MADE
CI-ITERATION   0: 
  -229.238479657   0.000000000000 (    0.00)
  -229.069078397   0.000000000000
   CI-PROBLEM SOLVED
   DENSITIES MADE
   E(CAS)=  -229.161676417 Eh DE=    -0.000032869
   --- Energy gap subspaces: Ext-Act = -0.019   Act-Int = 0.084
   N(occ)=  1.44815 1.51888 0.95268 0.08029
   ||g|| =      0.004091678 Max(G)=     0.001735228 Rot=21,16
   --- Orbital Update [SuperCI(PT)]
   --- Canonicalize Internal Space
   --- Canonicalize External Space
   --- SX_PT (Skipped TA=0 IT=0): ||X|| =      0.001480792 Max(X)(20,11) =     -0.000838224 
   --- SFit(Active Orbitals)

MACRO-ITERATION   6: 
   --- Inactive Energy E0 = -225.92473125 Eh
CI-ITERATION   0: 
  -229.231155692   0.000000000000 (    0.00)
  -229.108056109   0.000000000000
   CI-PROBLEM SOLVED
   DENSITIES MADE
CI-ITERATION   0: 
  -229.238456288   0.000000000000 (    0.00)
  -229.069048896   0.000000000000
   CI-PROBLEM SOLVED
   DENSITIES MADE
   E(CAS)=  -229.161679246 Eh DE=    -0.000002830
   --- Energy gap subspaces: Ext-Act = -0.019   Act-Int = 0.084
   N(occ)=  1.44789 1.51854 0.95292 0.08064
   ||g|| =      0.001383545 Max(G)=    -0.000258906 Rot=33,13
   --- Orbital Update [SuperCI(PT)]
   --- Canonicalize Internal Space
   --- Canonicalize External Space
   --- SX_PT (Skipped TA=0 IT=0): ||X|| =      0.000357604 Max(X)(37,21) =      0.000133508 
   --- SFit(Active Orbitals)

MACRO-ITERATION   7: 
   --- Inactive Energy E0 = -225.92441888 Eh
CI-ITERATION   0: 
  -229.231174695   0.000000000000 (    0.00)
  -229.108050404   0.000000000000
   CI-PROBLEM SOLVED
   DENSITIES MADE
CI-ITERATION   0: 
  -229.238477687   0.000000000000 (    0.00)
  -229.069015028   0.000000000000
   CI-PROBLEM SOLVED
   DENSITIES MADE
   E(CAS)=  -229.161679454 Eh DE=    -0.000000208
   --- Energy gap subspaces: Ext-Act = -0.019   Act-Int = 0.084
   N(occ)=  1.44787 1.51847 0.95294 0.08072
   ||g|| =      0.000441941 Max(G)=    -0.000119947 Rot=24,20
                     ---- THE CAS-SCF GRADIENT HAS CONVERGED ----
                            --- FINALIZING ORBITALS ---
                    ---- DOING ONE FINAL ITERATION FOR PRINTING ----
   --- Forming Natural Orbitals
   --- Canonicalize Internal Space
   --- Canonicalize External Space

MACRO-ITERATION   8: 
   --- Inactive Energy E0 = -225.92441888 Eh
   --- All densities will be recomputed
CI-ITERATION   0: 
  -229.231174696   0.000000000000 (    0.00)
  -229.108050405   0.000000000000
   CI-PROBLEM SOLVED
   DENSITIES MADE
CI-ITERATION   0: 
  -229.238477687   0.000000000000 (    0.00)
  -229.069015029   0.000000000000
   CI-PROBLEM SOLVED
   DENSITIES MADE
   E(CAS)=  -229.161679454 Eh DE=    -0.000000000
   --- Energy gap subspaces: Ext-Act = -0.061   Act-Int = 0.084
   N(occ)=  1.51847 1.44787 0.95294 0.08072
   ||g|| =      0.000441944 Max(G)=    -0.000088211 Rot=19,16
--------------
CASSCF RESULTS
--------------

Final CASSCF energy       : -229.161679454 Eh   -6235.8063 eV

----------------
ORBITAL ENERGIES
----------------

  NO   OCC          E(Eh)            E(eV) 
   0   2.0000     -11.264457      -306.5215 
   1   2.0000     -11.264440      -306.5210 
   2   2.0000     -11.263501      -306.4954 
   3   2.0000     -11.263423      -306.4933 
   4   2.0000     -11.249970      -306.1273 
   5   2.0000     -11.249707      -306.1201 
   6   2.0000      -1.159856       -31.5613 
   7   2.0000      -1.024831       -27.8871 
   8   2.0000      -0.994976       -27.0747 
   9   2.0000      -0.840877       -22.8814 
  10   2.0000      -0.795749       -21.6534 
  11   2.0000      -0.655836       -17.8462 
  12   2.0000      -0.646872       -17.6023 
  13   2.0000      -0.643296       -17.5050 
  14   2.0000      -0.603533       -16.4230 
  15   2.0000      -0.535619       -14.5749 
  16   2.0000      -0.509401       -13.8615 
  17   2.0000      -0.358953        -9.7676 
  18   1.5185      -0.239913        -6.5284 
  19   1.4479      -0.274845        -7.4789 
  20   0.9529      -0.148528        -4.0416 
  21   0.0807       0.175417         4.7733 
  22   0.0000       0.114831         3.1247 
  23   0.0000       0.197586         5.3766 
  24   0.0000       0.212733         5.7888 
  25   0.0000       0.244409         6.6507 
  26   0.0000       0.253995         6.9116 
  27   0.0000       0.345679         9.4064 
  28   0.0000       0.429443        11.6857 
  29   0.0000       0.455950        12.4070 
  30   0.0000       0.469266        12.7694 
  31   0.0000       0.484572        13.1859 
  32   0.0000       0.503615        13.7041 
  33   0.0000       0.574590        15.6354 
  34   0.0000       0.596586        16.2339 
  35   0.0000       0.603270        16.4158 
  36   0.0000       0.632873        17.2213 
  37   0.0000       0.660687        17.9782 
  38   0.0000       0.672346        18.2955 
  39   0.0000       0.706847        19.2343 
  40   0.0000       0.739336        20.1183 
  41   0.0000       0.741066        20.1654 
  42   0.0000       0.741149        20.1677 
  43   0.0000       0.761111        20.7109 
  44   0.0000       0.790492        21.5104 
  45   0.0000       0.813118        22.1261 
  46   0.0000       0.817376        22.2419 
  47   0.0000       0.865788        23.5593 
  48   0.0000       0.879377        23.9291 
  49   0.0000       0.911028        24.7903 
  50   0.0000       0.926657        25.2156 
  51   0.0000       0.942875        25.6569 
  52   0.0000       0.955383        25.9973 
  53   0.0000       0.960822        26.1453 
  54   0.0000       0.981608        26.7109 
  55   0.0000       1.002568        27.2813 
  56   0.0000       1.054348        28.6903 
  57   0.0000       1.098899        29.9026 
  58   0.0000       1.187166        32.3044 
  59   0.0000       1.254768        34.1440 
  60   0.0000       1.425428        38.7879 
  61   0.0000       1.457793        39.6686 
  62   0.0000       1.473651        40.1001 
  63   0.0000       1.485336        40.4181 
  64   0.0000       1.492420        40.6108 
  65   0.0000       1.539368        41.8883 
  66   0.0000       1.660411        45.1821 
  67   0.0000       1.769008        48.1372 
  68   0.0000       1.887745        51.3682 
  69   0.0000       1.924026        52.3554 
  70   0.0000       2.017088        54.8878 
  71   0.0000       2.022067        55.0232 
  72   0.0000       2.025977        55.1296 
  73   0.0000       2.028288        55.1925 
  74   0.0000       2.029419        55.2233 
  75   0.0000       2.078989        56.5722 
  76   0.0000       2.100199        57.1493 
  77   0.0000       2.126211        57.8572 
  78   0.0000       2.136583        58.1394 
  79   0.0000       2.245921        61.1146 
  80   0.0000       2.256409        61.4000 
  81   0.0000       2.299421        62.5704 
  82   0.0000       2.347614        63.8818 
  83   0.0000       2.386627        64.9434 
  84   0.0000       2.467774        67.1516 
  85   0.0000       2.497628        67.9639 
  86   0.0000       2.547929        69.3327 
  87   0.0000       2.557984        69.6063 
  88   0.0000       2.636786        71.7506 
  89   0.0000       2.650343        72.1195 
  90   0.0000       2.656128        72.2769 
  91   0.0000       2.680583        72.9424 
  92   0.0000       2.808657        76.4275 
  93   0.0000       2.890526        78.6552 
  94   0.0000       2.995825        81.5205 
  95   0.0000       3.005675        81.7886 
  96   0.0000       3.057702        83.2043 
  97   0.0000       3.148511        85.6753 
  98   0.0000       3.166947        86.1770 
  99   0.0000       3.258033        88.6556 
 100   0.0000       3.286094        89.4192 
 101   0.0000       3.446545        93.7853 
 102   0.0000       3.528721        96.0214 
 103   0.0000       3.887514       105.7846 


---------------------------------------------
CAS-SCF STATES FOR BLOCK  1 MULT= 3 NROOTS= 2
---------------------------------------------

ROOT   0:  E=    -229.2311746960 Eh
      0.96404 [     3]: 1210
      0.02328 [     9]: 1012
      0.00731 [     1]: 2101
      0.00538 [    11]: 0121
ROOT   1:  E=    -229.1080504048 Eh  3.350 eV  27022.7 cm**-1
      0.88577 [     0]: 2110
      0.08039 [     8]: 1021
      0.02736 [     4]: 1201
      0.00647 [    12]: 0112


---------------------------------------------
CAS-SCF STATES FOR BLOCK  2 MULT= 1 NROOTS= 2
---------------------------------------------

ROOT   0:  E=    -229.2384776874 Eh
      0.60888 [     0]: 2200
      0.34475 [    13]: 0220
      0.02270 [     9]: 1111
      0.01254 [     5]: 2002
      0.01090 [    18]: 0022
ROOT   1:  E=    -229.0690150289 Eh  4.611 eV  37192.8 cm**-1
      0.93137 [     1]: 2110
      0.04529 [    11]: 1021
      0.01883 [     7]: 1201
      0.00450 [    17]: 0112


-----------------------------
SA-CASSCF TRANSITION ENERGIES
------------------------------

LOWEST ROOT (ROOT 0 ,MULT 1) =   -229.238477687 Eh -6237.896 eV

STATE   ROOT MULT  DE/a.u.    DE/eV    DE/cm**-1
   1:    0    3   0.007303     0.199   1602.8
   2:    1    3   0.130427     3.549  28625.5
   3:    1    1   0.169463     4.611  37192.8


--------------
DENSITY MATRIX
--------------

                   0          1          2          3    
      0       1.518466   0.000000   0.000000   0.000000
      1       0.000000   1.447869   0.000000  -0.000000
      2       0.000000   0.000000   0.952944   0.000000
      3       0.000000  -0.000000   0.000000   0.080722
Trace of the electron density:  4.000000
Extracting Spin-Density from 2-RDM (MULT=3) ... done
Extracting Spin-Density from 2-RDM (MULT=1) ... done

-------------------
SPIN-DENSITY MATRIX
-------------------

                   0          1          2          3    
      0       0.273767  -0.000000  -0.000085   0.000000
      1      -0.000000   0.226233  -0.000000  -0.000113
      2      -0.000085  -0.000000   0.469891  -0.000000
      3       0.000000  -0.000113  -0.000000   0.030109
Trace of the spin density:  1.000000

-----------------
ENERGY COMPONENTS
-----------------

One electron energy          :   -675.547366879 Eh      -18382.5784 eV
Two electron energy          :    260.693713066 Eh        7093.8366 eV
Nuclear repulsion energy     :    185.691974359 Eh        5052.9355 eV
                               ----------------
                                 -229.161679454

Kinetic energy               :    228.301266388 Eh        6212.3933 eV
Potential energy             :   -457.462945842 Eh      -12448.1996 eV
Virial ratio                 :     -2.003768762 
                               ----------------
                                 -229.161679454

Core energy                  :   -225.924418883 Eh    -6147.7160 eV


----------------------------
LOEWDIN ORBITAL-COMPOSITIONS
----------------------------

                      0         1         2         3         4         5   
                 -11.26446 -11.26444 -11.26350 -11.26342 -11.24997 -11.24971
                   2.00000   2.00000   2.00000   2.00000   2.00000   2.00000
                  --------  --------  --------  --------  --------  --------
 0 C  s               0.2       0.0       0.2       0.0       0.8      98.4
 0 C  py              0.0       0.1       0.0       0.1       0.0       0.0
 1 C  s              23.4      23.6      26.2      26.2       0.0       0.2
 1 C  py              0.0       0.0       0.0       0.0       0.0       0.1
 2 C  s              26.2      26.1      23.4      23.6       0.2       0.0
 2 C  py              0.0       0.0       0.0       0.0       0.1       0.0
 3 C  s               0.2       0.0       0.2       0.0      98.4       0.8
 3 C  py              0.0       0.1       0.0       0.1       0.0       0.0
 4 C  s              26.2      26.1      23.4      23.6       0.2       0.0
 4 C  py              0.0       0.0       0.0       0.0       0.1       0.0
 5 C  s              23.4      23.6      26.2      26.2       0.0       0.2
 5 C  py              0.0       0.0       0.0       0.0       0.0       0.1

                      6         7         8         9        10        11   
                  -1.15986  -1.02483  -0.99498  -0.84088  -0.79575  -0.65584
                   2.00000   2.00000   2.00000   2.00000   2.00000   2.00000
                  --------  --------  --------  --------  --------  --------
 0 C  s              12.1       0.0      18.1       0.0       6.0       3.2
 0 C  px              3.2       0.0       1.4       0.0       0.4       3.4
 0 C  py              0.0      10.5       0.0      15.7       0.0       0.0
 0 C  dz2             0.2       0.0       0.2       0.0       0.0       0.0
 0 C  dx2y2           0.1       0.0       0.2       0.0       0.0       0.4
 0 C  dxy             0.0       0.4       0.0       0.3       0.0       0.0
 1 C  s              12.2      13.7       5.9       7.0       2.4       0.2
 1 C  px              0.8       2.0       4.8       5.2       2.9      14.9
 1 C  py              2.3       0.3       2.5       0.2      11.9       1.3
 1 C  dz2             0.1       0.1       0.0       0.0       0.0       0.0
 1 C  dx2y2           0.0       0.1       0.3       0.1       0.2       0.2
 1 C  dxy             0.0       0.0       0.1       0.0       0.0       0.0
 2 C  s              12.2      13.7       5.9       7.0       2.4       0.2
 2 C  px              0.8       2.0       4.8       5.2       2.8      14.9
 2 C  py              2.3       0.3       2.5       0.2      11.9       1.4
 2 C  dz2             0.1       0.1       0.0       0.0       0.0       0.0
 2 C  dx2y2           0.0       0.1       0.3       0.1       0.2       0.2
 2 C  dxy             0.0       0.0       0.1       0.0       0.0       0.0
 3 C  s              12.1       0.0      18.1       0.0       6.0       3.2
 3 C  px              3.2       0.0       1.4       0.0       0.4       3.4
 3 C  py              0.0      10.5       0.0      15.7       0.0       0.0
 3 C  dz2             0.2       0.0       0.2       0.0       0.0       0.0
 3 C  dx2y2           0.1       0.0       0.2       0.0       0.0       0.4
 3 C  dxy             0.0       0.4       0.0       0.3       0.0       0.0
 4 C  s              12.2      13.7       5.9       7.0       2.4       0.2
 4 C  px              0.8       2.0       4.8       5.2       2.8      14.9
 4 C  py              2.3       0.3       2.5       0.2      11.9       1.4
 4 C  dz2             0.1       0.1       0.0       0.0       0.0       0.0
 4 C  dx2y2           0.0       0.1       0.3       0.1       0.2       0.2
 4 C  dxy             0.0       0.0       0.1       0.0       0.0       0.0
 5 C  s              12.2      13.7       5.9       7.0       2.4       0.2
 5 C  px              0.8       2.0       4.8       5.2       2.9      14.9
 5 C  py              2.3       0.3       2.5       0.2      11.9       1.3
 5 C  dz2             0.1       0.1       0.0       0.0       0.0       0.0
 5 C  dx2y2           0.0       0.1       0.3       0.1       0.2       0.2
 5 C  dxy             0.0       0.0       0.1       0.0       0.0       0.0
 6 H  s               1.6       3.1       1.3       4.2       4.0       4.6
 6 H  px              0.0       0.1       0.0       0.0       0.2       0.0
 6 H  py              0.1       0.2       0.1       0.4       0.1       0.2
 7 H  s               1.6       3.1       1.3       4.2       4.0       4.6
 7 H  px              0.0       0.1       0.0       0.0       0.2       0.0
 7 H  py              0.1       0.2       0.1       0.4       0.1       0.2
 8 H  s               1.6       3.1       1.3       4.2       4.0       4.6
 8 H  px              0.0       0.1       0.0       0.0       0.2       0.0
 8 H  py              0.1       0.2       0.1       0.4       0.1       0.2
 9 H  s               1.6       3.1       1.3       4.2       4.0       4.6
 9 H  px              0.0       0.1       0.0       0.0       0.2       0.0
 9 H  py              0.1       0.2       0.1       0.4       0.1       0.2

                     12        13        14        15        16        17   
                  -0.64687  -0.64330  -0.60353  -0.53562  -0.50940  -0.35895
                   2.00000   2.00000   2.00000   2.00000   2.00000   2.00000
                  --------  --------  --------  --------  --------  --------
 0 C  s               0.0       3.0       0.0       0.0       0.0       0.0
 0 C  pz              0.0       0.0       0.0       0.0      14.0       0.0
 0 C  px              0.0       0.9       0.0       0.0       0.0       0.0
 0 C  py             15.8       0.0       0.8      10.7       0.0       0.0
 0 C  dxz             0.0       0.0       0.0       0.0       0.2       0.0
 0 C  dyz             0.0       0.0       0.0       0.0       0.0       0.8
 0 C  dxy             0.4       0.0       0.3       0.4       0.0       0.0
 1 C  s               0.0       1.4       0.2       0.1       0.0       0.0
 1 C  pz              0.0       0.0       0.0       0.0      17.5      23.9
 1 C  px              4.1       1.4      14.5       0.1       0.0       0.0
 1 C  py             10.7       9.5       3.3      10.6       0.0       0.0
 1 C  dxz             0.0       0.0       0.0       0.0       0.1       0.2
 1 C  dyz             0.0       0.0       0.0       0.0       0.1       0.0
 1 C  dx2y2           0.0       0.0       0.3       0.0       0.0       0.0
 1 C  dxy             0.1       0.5       0.0       0.9       0.0       0.0
 2 C  s               0.0       1.4       0.2       0.1       0.0       0.0
 2 C  pz              0.0       0.0       0.0       0.0      17.5      23.9
 2 C  px              4.1       1.3      14.5       0.1       0.0       0.0
 2 C  py             10.8       9.4       3.3      10.6       0.0       0.0
 2 C  dxz             0.0       0.0       0.0       0.0       0.1       0.2
 2 C  dyz             0.0       0.0       0.0       0.0       0.1       0.0
 2 C  dx2y2           0.0       0.0       0.3       0.0       0.0       0.0
 2 C  dxy             0.1       0.5       0.0       0.9       0.0       0.0
 3 C  s               0.0       3.0       0.0       0.0       0.0       0.0
 3 C  pz              0.0       0.0       0.0       0.0      14.1       0.0
 3 C  px              0.0       0.9       0.0       0.0       0.0       0.0
 3 C  py             15.8       0.0       0.8      10.7       0.0       0.0
 3 C  dxz             0.0       0.0       0.0       0.0       0.2       0.0
 3 C  dyz             0.0       0.0       0.0       0.0       0.0       0.8
 3 C  dxy             0.4       0.0       0.3       0.4       0.0       0.0
 4 C  s               0.0       1.4       0.2       0.1       0.0       0.0
 4 C  pz              0.0       0.0       0.0       0.0      17.5      23.9
 4 C  px              4.1       1.3      14.5       0.1       0.0       0.0
 4 C  py             10.8       9.4       3.3      10.6       0.0       0.0
 4 C  dxz             0.0       0.0       0.0       0.0       0.1       0.2
 4 C  dyz             0.0       0.0       0.0       0.0       0.1       0.0
 4 C  dx2y2           0.0       0.0       0.3       0.0       0.0       0.0
 4 C  dxy             0.1       0.5       0.0       0.9       0.0       0.0
 5 C  s               0.0       1.4       0.2       0.1       0.0       0.0
 5 C  pz              0.0       0.0       0.0       0.0      17.5      23.9
 5 C  px              4.1       1.4      14.5       0.1       0.0       0.0
 5 C  py             10.7       9.5       3.3      10.6       0.0       0.0
 5 C  dxz             0.0       0.0       0.0       0.0       0.1       0.2
 5 C  dyz             0.0       0.0       0.0       0.0       0.1       0.0
 5 C  dx2y2           0.0       0.0       0.3       0.0       0.0       0.0
 5 C  dxy             0.1       0.5       0.0       0.9       0.0       0.0
 6 H  s               1.8       9.9       5.9       7.6       0.0       0.0
 6 H  pz              0.0       0.0       0.0       0.0       0.2       0.4
 6 H  px              0.2       0.1       0.0       0.1       0.0       0.0
 6 H  py              0.0       0.3       0.2       0.0       0.0       0.0
 7 H  s               1.8       9.9       5.9       7.6       0.0       0.0
 7 H  pz              0.0       0.0       0.0       0.0       0.2       0.4
 7 H  px              0.2       0.1       0.0       0.1       0.0       0.0
 7 H  py              0.0       0.3       0.2       0.0       0.0       0.0
 8 H  s               1.8       9.9       5.9       7.6       0.0       0.0
 8 H  pz              0.0       0.0       0.0       0.0       0.2       0.4
 8 H  px              0.2       0.1       0.0       0.1       0.0       0.0
 8 H  py              0.0       0.3       0.2       0.0       0.0       0.0
 9 H  s               1.8       9.9       5.9       7.6       0.0       0.0
 9 H  pz              0.0       0.0       0.0       0.0       0.2       0.4
 9 H  px              0.2       0.1       0.0       0.1       0.0       0.0
 9 H  py              0.0       0.3       0.2       0.0       0.0       0.0

                     18        19        20        21        22        23   
                  -0.23991  -0.27484  -0.14853   0.17542   0.11483   0.19759
                   1.51847   1.44787   0.95294   0.08072   0.00000   0.00000
                  --------  --------  --------  --------  --------  --------
 0 C  s               5.2       0.0       6.1       0.0       0.0       0.0
 0 C  pz              0.0      32.9       0.0      35.1       0.0       0.0
 0 C  px             38.5       0.0      32.9       0.0       0.0       0.6
 0 C  dxz             0.0       0.1       0.0       0.4       0.0       0.0
 0 C  dyz             0.0       0.0       0.0       0.0       1.8       0.0
 0 C  dx2y2           0.1       0.0       0.3       0.0       0.0       1.0
 1 C  s               1.0       0.0       0.2       0.0       0.0       2.3
 1 C  pz              0.0       7.8       0.0       5.8      22.5       0.0
 1 C  px              0.6       0.0       2.6       0.0       0.0       1.1
 1 C  py              0.7       0.0       0.4       0.0       0.0       1.0
 1 C  dz2             0.0       0.0       0.0       0.0       0.0       0.1
 1 C  dxz             0.0       0.3       0.0       0.7       0.5       0.0
 1 C  dyz             0.0       0.3       0.0       0.5       0.0       0.0
 1 C  dx2y2           0.6       0.0       0.6       0.0       0.0       0.1
 1 C  dxy             0.1       0.0       0.4       0.0       0.0       0.3
 2 C  s               1.0       0.0       0.2       0.0       0.0       2.3
 2 C  pz              0.0       7.8       0.0       5.8      22.5       0.0
 2 C  px              0.6       0.0       2.6       0.0       0.0       1.1
 2 C  py              0.7       0.0       0.4       0.0       0.0       1.0
 2 C  dz2             0.0       0.0       0.0       0.0       0.0       0.1
 2 C  dxz             0.0       0.3       0.0       0.7       0.5       0.0
 2 C  dyz             0.0       0.3       0.0       0.5       0.0       0.0
 2 C  dx2y2           0.6       0.0       0.6       0.0       0.0       0.1
 2 C  dxy             0.1       0.0       0.4       0.0       0.0       0.3
 3 C  s               5.2       0.0       6.1       0.0       0.0       0.0
 3 C  pz              0.0      32.9       0.0      35.0       0.0       0.0
 3 C  px             38.4       0.0      33.1       0.0       0.0       0.6
 3 C  dxz             0.0       0.1       0.0       0.4       0.0       0.0
 3 C  dyz             0.0       0.0       0.0       0.0       1.8       0.0
 3 C  dx2y2           0.1       0.0       0.3       0.0       0.0       1.0
 4 C  s               1.0       0.0       0.2       0.0       0.0       2.3
 4 C  pz              0.0       7.8       0.0       5.8      22.5       0.0
 4 C  px              0.6       0.0       2.6       0.0       0.0       1.1
 4 C  py              0.7       0.0       0.4       0.0       0.0       1.0
 4 C  dz2             0.0       0.0       0.0       0.0       0.0       0.1
 4 C  dxz             0.0       0.3       0.0       0.7       0.5       0.0
 4 C  dyz             0.0       0.3       0.0       0.5       0.0       0.0
 4 C  dx2y2           0.6       0.0       0.6       0.0       0.0       0.1
 4 C  dxy             0.1       0.0       0.4       0.0       0.0       0.3
 5 C  s               1.0       0.0       0.2       0.0       0.0       2.3
 5 C  pz              0.0       7.8       0.0       5.8      22.5       0.0
 5 C  px              0.6       0.0       2.6       0.0       0.0       1.1
 5 C  py              0.7       0.0       0.4       0.0       0.0       1.0
 5 C  dz2             0.0       0.0       0.0       0.0       0.0       0.1
 5 C  dxz             0.0       0.3       0.0       0.7       0.5       0.0
 5 C  dyz             0.0       0.3       0.0       0.5       0.0       0.0
 5 C  dx2y2           0.6       0.0       0.6       0.0       0.0       0.1
 5 C  dxy             0.1       0.0       0.4       0.0       0.0       0.3
 6 H  s               0.2       0.0       1.0       0.0       0.0      16.7
 6 H  pz              0.0       0.1       0.0       0.2       1.1       0.0
 6 H  px              0.0       0.0       0.1       0.0       0.0       0.3
 6 H  py              0.0       0.0       0.0       0.0       0.0       2.2
 7 H  s               0.2       0.0       1.0       0.0       0.0      16.7
 7 H  pz              0.0       0.1       0.0       0.2       1.1       0.0
 7 H  px              0.0       0.0       0.1       0.0       0.0       0.3
 7 H  py              0.0       0.0       0.0       0.0       0.0       2.2
 8 H  s               0.2       0.0       1.0       0.0       0.0      16.7
 8 H  pz              0.0       0.1       0.0       0.2       1.1       0.0
 8 H  px              0.0       0.0       0.1       0.0       0.0       0.3
 8 H  py              0.0       0.0       0.0       0.0       0.0       2.2
 9 H  s               0.2       0.0       1.0       0.0       0.0      16.7
 9 H  pz              0.0       0.1       0.0       0.2       1.1       0.0
 9 H  px              0.0       0.0       0.1       0.0       0.0       0.3
 9 H  py              0.0       0.0       0.0       0.0       0.0       2.2

                     24        25        26        27        28        29   
                   0.21273   0.24441   0.25400   0.34568   0.42944   0.45595
                   0.00000   0.00000   0.00000   0.00000   0.00000   0.00000
                  --------  --------  --------  --------  --------  --------
 0 C  s               0.0       0.2       0.0       0.0      12.8       0.0
 0 C  pz              0.0       0.0       0.0      15.0       0.0       0.0
 0 C  px              0.0       1.4       0.0       0.0       1.8       0.0
 0 C  py              0.5       0.0       0.1       0.0       0.0       5.3
 0 C  dz2             0.0       0.0       0.0       0.0       1.7       0.0
 0 C  dxz             0.0       0.0       0.0       0.5       0.0       0.0
 0 C  dx2y2           0.0       0.4       0.0       0.0       0.5       0.0
 0 C  dxy             0.2       0.0       0.0       0.0       0.0       4.7
 1 C  s               1.2       1.6       2.4       0.0       2.5       6.8
 1 C  pz              0.0       0.0       0.0      14.9       0.0       0.0
 1 C  px              0.8       0.6       0.2       0.0       3.4       6.3
 1 C  py              2.4       1.1       1.3       0.0       3.1       1.0
 1 C  dz2             0.0       0.1       0.2       0.0       0.6       1.3
 1 C  dxz             0.0       0.0       0.0       0.1       0.0       0.0
 1 C  dyz             0.0       0.0       0.0       0.5       0.0       0.0
 1 C  dx2y2           0.0       0.1       0.0       0.0       2.1       2.1
 1 C  dxy             0.3       0.0       0.0       0.0       1.6       0.0
 2 C  s               1.2       1.6       2.3       0.0       2.5       6.8
 2 C  pz              0.0       0.0       0.0      14.9       0.0       0.0
 2 C  px              0.8       0.6       0.2       0.0       3.4       6.3
 2 C  py              2.4       1.1       1.3       0.0       3.1       1.0
 2 C  dz2             0.0       0.1       0.2       0.0       0.6       1.3
 2 C  dxz             0.0       0.0       0.0       0.1       0.0       0.0
 2 C  dyz             0.0       0.0       0.0       0.5       0.0       0.0
 2 C  dx2y2           0.0       0.1       0.0       0.0       2.2       2.1
 2 C  dxy             0.3       0.0       0.0       0.0       1.6       0.0
 3 C  s               0.0       0.2       0.0       0.0      12.8       0.0
 3 C  pz              0.0       0.0       0.0      15.0       0.0       0.0
 3 C  px              0.0       1.4       0.0       0.0       1.8       0.0
 3 C  py              0.5       0.0       0.1       0.0       0.0       5.3
 3 C  dz2             0.0       0.0       0.0       0.0       1.7       0.0
 3 C  dxz             0.0       0.0       0.0       0.5       0.0       0.0
 3 C  dx2y2           0.0       0.4       0.0       0.0       0.5       0.0
 3 C  dxy             0.2       0.0       0.0       0.0       0.0       4.7
 4 C  s               1.2       1.6       2.3       0.0       2.5       6.8
 4 C  pz              0.0       0.0       0.0      14.9       0.0       0.0
 4 C  px              0.8       0.6       0.2       0.0       3.4       6.3
 4 C  py              2.4       1.1       1.3       0.0       3.1       1.0
 4 C  dz2             0.0       0.1       0.2       0.0       0.6       1.3
 4 C  dxz             0.0       0.0       0.0       0.1       0.0       0.0
 4 C  dyz             0.0       0.0       0.0       0.5       0.0       0.0
 4 C  dx2y2           0.0       0.1       0.0       0.0       2.2       2.1
 4 C  dxy             0.3       0.0       0.0       0.0       1.6       0.0
 5 C  s               1.2       1.6       2.4       0.0       2.5       6.8
 5 C  pz              0.0       0.0       0.0      14.9       0.0       0.0
 5 C  px              0.8       0.6       0.2       0.0       3.4       6.3
 5 C  py              2.4       1.1       1.3       0.0       3.1       1.0
 5 C  dz2             0.0       0.1       0.2       0.0       0.6       1.3
 5 C  dxz             0.0       0.0       0.0       0.1       0.0       0.0
 5 C  dyz             0.0       0.0       0.0       0.5       0.0       0.0
 5 C  dx2y2           0.0       0.1       0.0       0.0       2.1       2.1
 5 C  dxy             0.3       0.0       0.0       0.0       1.6       0.0
 6 H  s              17.3      17.9      18.2       0.0       0.3       0.8
 6 H  pz              0.0       0.0       0.0       1.7       0.0       0.0
 6 H  px              0.5       0.8       1.1       0.0       2.1       1.1
 6 H  py              2.0       1.9       1.6       0.0       0.8       0.6
 7 H  s              17.3      17.9      18.1       0.0       0.3       0.8
 7 H  pz              0.0       0.0       0.0       1.7       0.0       0.0
 7 H  px              0.5       0.8       1.1       0.0       2.1       1.1
 7 H  py              2.0       1.9       1.6       0.0       0.8       0.6
 8 H  s              17.3      17.9      18.1       0.0       0.3       0.8
 8 H  pz              0.0       0.0       0.0       1.7       0.0       0.0
 8 H  px              0.5       0.8       1.1       0.0       2.1       1.1
 8 H  py              2.0       1.9       1.6       0.0       0.8       0.6
 9 H  s              17.3      17.9      18.2       0.0       0.3       0.8
 9 H  pz              0.0       0.0       0.0       1.7       0.0       0.0
 9 H  px              0.5       0.8       1.1       0.0       2.1       1.1
 9 H  py              2.0       1.9       1.6       0.0       0.8       0.6

                     30        31        32        33        34        35   
                   0.46927   0.48457   0.50362   0.57459   0.59659   0.60327
                   0.00000   0.00000   0.00000   0.00000   0.00000   0.00000
                  --------  --------  --------  --------  --------  --------
 0 C  s              13.1       0.0      16.9       0.0      16.8       0.0
 0 C  px              0.2       0.0       0.3       0.0       4.4       0.0
 0 C  py              0.0       8.4       0.0       2.7       0.0      14.4
 0 C  dz2             2.2       0.0       1.3       0.0       0.1       0.0
 0 C  dx2y2           2.7       0.0       0.9       0.0       0.1       0.0
 0 C  dxy             0.0       1.3       0.0       0.8       0.0       3.6
 1 C  s               1.9       7.0      12.2      11.4       4.4       0.7
 1 C  px              6.9       1.0       0.4       1.0       1.4      10.1
 1 C  py              1.1       4.8       1.3       1.2       0.2       2.2
 1 C  dz2             0.3       1.3       0.9       1.9       2.4       0.1
 1 C  dx2y2           2.3       0.2       0.2       0.0       0.4       1.4
 1 C  dxy             0.0       3.1       0.3       1.3       0.0       0.1
 2 C  s               1.9       7.0      12.2      11.4       4.4       0.7
 2 C  px              6.9       1.0       0.4       1.0       1.4      10.1
 2 C  py              1.1       4.8       1.3       1.2       0.2       2.2
 2 C  dz2             0.3       1.3       0.9       1.9       2.3       0.1
 2 C  dx2y2           2.3       0.2       0.2       0.0       0.4       1.4
 2 C  dxy             0.0       3.1       0.3       1.3       0.0       0.1
 3 C  s              13.1       0.0      16.9       0.0      16.7       0.0
 3 C  px              0.2       0.0       0.3       0.0       4.4       0.0
 3 C  py              0.0       8.4       0.0       2.7       0.0      14.4
 3 C  dz2             2.2       0.0       1.3       0.0       0.1       0.0
 3 C  dx2y2           2.7       0.0       0.9       0.0       0.1       0.0
 3 C  dxy             0.0       1.3       0.0       0.8       0.0       3.6
 4 C  s               1.9       7.0      12.2      11.4       4.4       0.7
 4 C  px              6.9       1.0       0.4       1.0       1.4      10.1
 4 C  py              1.1       4.8       1.3       1.2       0.2       2.2
 4 C  dz2             0.3       1.3       0.9       1.9       2.3       0.1
 4 C  dx2y2           2.3       0.2       0.2       0.0       0.4       1.4
 4 C  dxy             0.0       3.1       0.3       1.3       0.0       0.1
 5 C  s               1.9       7.0      12.2      11.4       4.4       0.7
 5 C  px              6.9       1.0       0.4       1.0       1.4      10.1
 5 C  py              1.1       4.8       1.3       1.2       0.2       2.2
 5 C  dz2             0.3       1.3       0.9       1.9       2.4       0.1
 5 C  dx2y2           2.3       0.2       0.2       0.0       0.4       1.4
 5 C  dxy             0.0       3.1       0.3       1.3       0.0       0.1
 6 H  s               0.4       0.7       0.1       6.3       4.5       0.8
 6 H  px              2.0       2.0       0.0       0.2       0.0       0.3
 6 H  py              1.0       0.2       0.0       0.0       0.9       0.3
 7 H  s               0.4       0.7       0.1       6.3       4.5       0.8
 7 H  px              2.0       2.0       0.0       0.2       0.0       0.3
 7 H  py              1.0       0.2       0.0       0.0       0.9       0.3
 8 H  s               0.4       0.7       0.1       6.3       4.5       0.8
 8 H  px              2.0       2.0       0.0       0.2       0.0       0.3
 8 H  py              1.0       0.2       0.0       0.0       0.9       0.3
 9 H  s               0.4       0.7       0.1       6.3       4.5       0.8
 9 H  px              2.0       2.0       0.0       0.2       0.0       0.3
 9 H  py              1.0       0.2       0.0       0.0       0.9       0.3

                     36        37        38        39        40        41   
                   0.63287   0.66069   0.67235   0.70685   0.73934   0.74107
                   0.00000   0.00000   0.00000   0.00000   0.00000   0.00000
                  --------  --------  --------  --------  --------  --------
 0 C  s               3.3       0.0       0.0       9.9       6.6       0.0
 0 C  pz              0.0      18.7       0.0       0.0       0.0      28.0
 0 C  px              0.3       0.0       0.0      10.3      33.6       0.0
 0 C  py              0.0       0.0       8.5       0.0       0.0       0.0
 0 C  dz2             0.4       0.0       0.0       0.9       0.1       0.0
 0 C  dxz             0.0       0.1       0.0       0.0       0.0       0.6
 0 C  dx2y2           1.7       0.0       0.0       0.1       0.0       0.0
 1 C  s               3.2       0.0       7.5       4.7       1.8       0.0
 1 C  pz              0.0      15.5       0.0       0.0       0.0      10.4
 1 C  px              1.9       0.0       3.0       2.4       0.2       0.0
 1 C  py              4.6       0.0       0.9       0.1       0.1       0.0
 1 C  dz2             1.6       0.0       3.1       1.5       0.0       0.0
 1 C  dyz             0.0       0.0       0.0       0.0       0.0       0.3
 1 C  dx2y2           0.2       0.0       0.3       0.1       0.0       0.0
 1 C  dxy             1.7       0.0       0.0       0.3       0.5       0.0
 2 C  s               3.2       0.0       7.5       4.7       1.8       0.0
 2 C  pz              0.0      15.5       0.0       0.0       0.0      10.3
 2 C  px              1.9       0.0       3.0       2.4       0.2       0.0
 2 C  py              4.6       0.0       0.9       0.1       0.1       0.0
 2 C  dz2             1.6       0.0       3.1       1.5       0.0       0.0
 2 C  dyz             0.0       0.0       0.0       0.0       0.0       0.3
 2 C  dx2y2           0.2       0.0       0.3       0.1       0.0       0.0
 2 C  dxy             1.7       0.0       0.0       0.3       0.5       0.0
 3 C  s               3.3       0.0       0.0       9.9       6.6       0.0
 3 C  pz              0.0      18.7       0.0       0.0       0.0      28.0
 3 C  px              0.3       0.0       0.0      10.4      33.7       0.0
 3 C  py              0.0       0.0       8.5       0.0       0.0       0.0
 3 C  dz2             0.4       0.0       0.0       0.9       0.1       0.0
 3 C  dxz             0.0       0.1       0.0       0.0       0.0       0.6
 3 C  dx2y2           1.7       0.0       0.0       0.1       0.0       0.0
 4 C  s               3.2       0.0       7.5       4.7       1.8       0.0
 4 C  pz              0.0      15.5       0.0       0.0       0.0      10.3
 4 C  px              1.9       0.0       3.0       2.4       0.2       0.0
 4 C  py              4.6       0.0       0.9       0.1       0.1       0.0
 4 C  dz2             1.6       0.0       3.1       1.5       0.0       0.0
 4 C  dyz             0.0       0.0       0.0       0.0       0.0       0.3
 4 C  dx2y2           0.2       0.0       0.3       0.1       0.0       0.0
 4 C  dxy             1.7       0.0       0.0       0.3       0.5       0.0
 5 C  s               3.2       0.0       7.5       4.7       1.8       0.0
 5 C  pz              0.0      15.5       0.0       0.0       0.0      10.4
 5 C  px              1.9       0.0       3.0       2.4       0.2       0.0
 5 C  py              4.6       0.0       0.9       0.1       0.1       0.0
 5 C  dz2             1.6       0.0       3.1       1.5       0.0       0.0
 5 C  dyz             0.0       0.0       0.0       0.0       0.0       0.3
 5 C  dx2y2           0.2       0.0       0.3       0.1       0.0       0.0
 5 C  dxy             1.7       0.0       0.0       0.3       0.5       0.0
 6 H  s               8.7       0.0       4.9       3.8       1.3       0.0
 6 H  px              0.1       0.0       0.0       1.3       0.6       0.0
 6 H  py              0.1       0.0       1.0       0.2       0.3       0.0
 7 H  s               8.7       0.0       4.9       3.8       1.3       0.0
 7 H  px              0.1       0.0       0.0       1.3       0.6       0.0
 7 H  py              0.1       0.0       1.0       0.2       0.3       0.0
 8 H  s               8.7       0.0       4.9       3.8       1.3       0.0
 8 H  px              0.1       0.0       0.0       1.3       0.6       0.0
 8 H  py              0.1       0.0       1.0       0.2       0.3       0.0
 9 H  s               8.7       0.0       4.9       3.8       1.3       0.0
 9 H  px              0.1       0.0       0.0       1.3       0.6       0.0
 9 H  py              0.1       0.0       1.0       0.2       0.3       0.0

                     42        43        44        45        46        47   
                   0.74115   0.76111   0.79049   0.81312   0.81738   0.86579
                   0.00000   0.00000   0.00000   0.00000   0.00000   0.00000
                  --------  --------  --------  --------  --------  --------
 0 C  s               0.0       1.0       0.0       0.0       0.0       0.0
 0 C  pz              0.0       0.0       0.0      29.5       0.0       0.0
 0 C  px              0.0      27.5       0.0       0.0       0.0       0.0
 0 C  py              0.0       0.0      18.8       0.0       0.0       3.0
 0 C  dz2             0.0       3.7       0.0       0.0       0.0       0.0
 0 C  dxz             0.0       0.0       0.0       0.2       0.0       0.0
 0 C  dyz             0.3       0.0       0.0       0.0       0.1       0.0
 0 C  dx2y2           0.0       0.4       0.0       0.0       0.0       0.0
 0 C  dxy             0.0       0.0       4.4       0.0       0.0       0.4
 1 C  s               0.0       5.3       0.3       0.0       0.0       4.5
 1 C  pz             24.3       0.0       0.0       9.7      24.5       0.0
 1 C  px              0.0       1.8       4.2       0.0       0.0       2.8
 1 C  py              0.0       0.1       2.6       0.0       0.0       5.2
 1 C  dz2             0.0       0.2       0.0       0.0       0.0       0.6
 1 C  dxz             0.2       0.0       0.0       0.0       0.0       0.0
 1 C  dyz             0.2       0.0       0.0       0.1       0.1       0.0
 1 C  dx2y2           0.0       0.8       0.5       0.0       0.0       0.4
 1 C  dxy             0.0       0.0       0.5       0.0       0.0       0.3
 2 C  s               0.0       5.3       0.3       0.0       0.0       4.6
 2 C  pz             24.3       0.0       0.0       9.8      24.4       0.0
 2 C  px              0.0       1.8       4.2       0.0       0.0       2.9
 2 C  py              0.0       0.1       2.6       0.0       0.0       5.2
 2 C  dz2             0.0       0.2       0.0       0.0       0.0       0.6
 2 C  dxz             0.2       0.0       0.0       0.0       0.0       0.0
 2 C  dyz             0.2       0.0       0.0       0.1       0.1       0.0
 2 C  dx2y2           0.0       0.8       0.5       0.0       0.0       0.4
 2 C  dxy             0.0       0.0       0.5       0.0       0.0       0.3
 3 C  s               0.0       1.0       0.0       0.0       0.0       0.0
 3 C  pz              0.0       0.0       0.0      29.5       0.0       0.0
 3 C  px              0.0      27.3       0.0       0.0       0.0       0.0
 3 C  py              0.0       0.0      18.7       0.0       0.0       3.0
 3 C  dz2             0.0       3.7       0.0       0.0       0.0       0.0
 3 C  dxz             0.0       0.0       0.0       0.2       0.0       0.0
 3 C  dyz             0.3       0.0       0.0       0.0       0.1       0.0
 3 C  dx2y2           0.0       0.4       0.0       0.0       0.0       0.0
 3 C  dxy             0.0       0.0       4.4       0.0       0.0       0.4
 4 C  s               0.0       5.3       0.3       0.0       0.0       4.6
 4 C  pz             24.3       0.0       0.0       9.8      24.4       0.0
 4 C  px              0.0       1.8       4.2       0.0       0.0       2.9
 4 C  py              0.0       0.1       2.6       0.0       0.0       5.2
 4 C  dz2             0.0       0.2       0.0       0.0       0.0       0.6
 4 C  dxz             0.2       0.0       0.0       0.0       0.0       0.0
 4 C  dyz             0.2       0.0       0.0       0.1       0.1       0.0
 4 C  dx2y2           0.0       0.8       0.5       0.0       0.0       0.4
 4 C  dxy             0.0       0.0       0.5       0.0       0.0       0.3
 5 C  s               0.0       5.3       0.3       0.0       0.0       4.5
 5 C  pz             24.3       0.0       0.0       9.7      24.5       0.0
 5 C  px              0.0       1.8       4.2       0.0       0.0       2.8
 5 C  py              0.0       0.1       2.6       0.0       0.0       5.2
 5 C  dz2             0.0       0.2       0.0       0.0       0.0       0.6
 5 C  dxz             0.2       0.0       0.0       0.0       0.0       0.0
 5 C  dyz             0.2       0.0       0.0       0.1       0.1       0.0
 5 C  dx2y2           0.0       0.8       0.5       0.0       0.0       0.4
 5 C  dxy             0.0       0.0       0.5       0.0       0.0       0.3
 6 H  s               0.0       0.2       0.6       0.0       0.0       6.8
 6 H  pz              0.2       0.0       0.0       0.3       0.4       0.0
 6 H  px              0.0       0.3       3.9       0.0       0.0       0.2
 6 H  py              0.0       0.1       0.8       0.0       0.0       2.4
 7 H  s               0.0       0.2       0.6       0.0       0.0       6.8
 7 H  pz              0.2       0.0       0.0       0.3       0.4       0.0
 7 H  px              0.0       0.3       3.9       0.0       0.0       0.2
 7 H  py              0.0       0.1       0.8       0.0       0.0       2.5
 8 H  s               0.0       0.2       0.6       0.0       0.0       6.8
 8 H  pz              0.2       0.0       0.0       0.3       0.4       0.0
 8 H  px              0.0       0.3       3.9       0.0       0.0       0.2
 8 H  py              0.0       0.1       0.8       0.0       0.0       2.5
 9 H  s               0.0       0.2       0.6       0.0       0.0       6.8
 9 H  pz              0.2       0.0       0.0       0.3       0.4       0.0
 9 H  px              0.0       0.3       3.9       0.0       0.0       0.2
 9 H  py              0.0       0.1       0.8       0.0       0.0       2.4

                     48        49        50        51        52        53   
                   0.87938   0.91103   0.92666   0.94288   0.95538   0.96082
                   0.00000   0.00000   0.00000   0.00000   0.00000   0.00000
                  --------  --------  --------  --------  --------  --------
 0 C  s               0.0       0.0       1.9       1.2       1.5       0.0
 0 C  pz              0.0      20.8       0.0       0.0       0.0       0.0
 0 C  px              0.0       0.0       5.1       2.6       0.8       0.0
 0 C  py              0.3       0.0       0.0       0.0       0.0       6.0
 0 C  dz2             0.0       0.0       3.2       0.8       2.6       0.0
 0 C  dxz             0.0       0.1       0.0       0.0       0.0       0.0
 0 C  dx2y2           0.0       0.0       0.6       0.3       0.0       0.0
 0 C  dxy             0.0       0.0       0.0       0.0       0.0       0.5
 1 C  s               9.0       0.0       0.2       0.9       5.7       7.5
 1 C  pz              0.0      13.6       0.0       0.0       0.0       0.0
 1 C  px              1.8       0.0      14.5       0.2       1.1      11.0
 1 C  py              5.9       0.0       2.0      13.9      11.4       1.0
 1 C  dz2             0.0       0.0       0.2       0.0       0.1       0.0
 1 C  dx2y2           0.1       0.0       0.4       0.0       0.0       0.9
 1 C  dxy             0.1       0.0       1.4       0.6       0.0       0.4
 2 C  s               8.9       0.0       0.2       0.9       5.7       7.5
 2 C  pz              0.0      13.6       0.0       0.0       0.0       0.0
 2 C  px              1.8       0.0      14.5       0.2       1.1      10.9
 2 C  py              5.9       0.0       2.0      14.0      11.3       1.0
 2 C  dz2             0.0       0.0       0.2       0.0       0.1       0.0
 2 C  dx2y2           0.1       0.0       0.4       0.0       0.0       0.9
 2 C  dxy             0.1       0.0       1.4       0.6       0.0       0.4
 3 C  s               0.0       0.0       1.9       1.2       1.5       0.0
 3 C  pz              0.0      20.7       0.0       0.0       0.0       0.0
 3 C  px              0.0       0.0       5.1       2.6       0.8       0.0
 3 C  py              0.3       0.0       0.0       0.0       0.0       6.0
 3 C  dz2             0.0       0.0       3.2       0.8       2.6       0.0
 3 C  dxz             0.0       0.1       0.0       0.0       0.0       0.0
 3 C  dx2y2           0.0       0.0       0.6       0.3       0.0       0.0
 3 C  dxy             0.0       0.0       0.0       0.0       0.0       0.5
 4 C  s               8.9       0.0       0.2       0.9       5.7       7.5
 4 C  pz              0.0      13.6       0.0       0.0       0.0       0.0
 4 C  px              1.8       0.0      14.5       0.2       1.1      10.9
 4 C  py              5.9       0.0       2.0      14.0      11.3       1.0
 4 C  dz2             0.0       0.0       0.2       0.0       0.1       0.0
 4 C  dx2y2           0.1       0.0       0.4       0.0       0.0       0.9
 4 C  dxy             0.1       0.0       1.4       0.6       0.0       0.4
 5 C  s               9.0       0.0       0.2       0.9       5.7       7.5
 5 C  pz              0.0      13.6       0.0       0.0       0.0       0.0
 5 C  px              1.8       0.0      14.5       0.2       1.1      11.0
 5 C  py              5.9       0.0       2.0      13.9      11.4       1.0
 5 C  dz2             0.0       0.0       0.2       0.0       0.1       0.0
 5 C  dx2y2           0.1       0.0       0.4       0.0       0.0       0.9
 5 C  dxy             0.1       0.0       1.4       0.6       0.0       0.4
 6 H  s               5.1       0.0       0.4       4.8       2.7       0.4
 6 H  pz              0.0       0.9       0.0       0.0       0.0       0.0
 6 H  px              0.5       0.0       0.4       0.1       0.1       0.5
 6 H  py              2.5       0.0       0.0       1.9       1.4       0.0
 7 H  s               5.1       0.0       0.4       4.8       2.7       0.4
 7 H  pz              0.0       0.9       0.0       0.0       0.0       0.0
 7 H  px              0.5       0.0       0.4       0.1       0.1       0.5
 7 H  py              2.4       0.0       0.0       1.9       1.4       0.0
 8 H  s               5.1       0.0       0.4       4.8       2.7       0.4
 8 H  pz              0.0       0.9       0.0       0.0       0.0       0.0
 8 H  px              0.5       0.0       0.4       0.1       0.1       0.5
 8 H  py              2.4       0.0       0.0       1.9       1.4       0.0
 9 H  s               5.1       0.0       0.4       4.8       2.7       0.4
 9 H  pz              0.0       0.9       0.0       0.0       0.0       0.0
 9 H  px              0.5       0.0       0.4       0.1       0.1       0.5
 9 H  py              2.5       0.0       0.0       1.9       1.4       0.0

                     54        55        56        57        58        59   
                   0.98161   1.00257   1.05435   1.09890   1.18717   1.25477
                   0.00000   0.00000   0.00000   0.00000   0.00000   0.00000
                  --------  --------  --------  --------  --------  --------
 0 C  s              17.6       5.4       0.0       8.9       0.0       0.0
 0 C  px             10.6       0.1       0.0       8.4       0.0       0.0
 0 C  py              0.0       0.0      26.4       0.0      21.1       5.7
 0 C  dz2             0.5       0.1       0.0       0.1       0.0       0.0
 0 C  dx2y2           2.2       1.7       0.0       0.8       0.0       0.0
 0 C  dxy             0.0       0.0       0.3       0.0       0.7       1.5
 1 C  s               5.2       0.3       2.3       8.1       0.6       2.3
 1 C  px              0.9      17.6       2.6       1.7       6.9       4.7
 1 C  py              1.0       1.5       4.0       3.9       4.6       9.2
 1 C  dz2             0.0       0.0       0.2       0.4       0.1       0.2
 1 C  dx2y2           0.8       0.6       0.0       0.0       0.7       1.3
 1 C  dxy             0.1       0.0       1.8       0.2       0.5       0.6
 2 C  s               5.2       0.3       2.3       8.1       0.5       2.3
 2 C  px              0.9      17.6       2.6       1.7       6.9       4.7
 2 C  py              1.1       1.5       4.0       3.9       4.6       9.2
 2 C  dz2             0.0       0.0       0.2       0.4       0.1       0.2
 2 C  dx2y2           0.8       0.6       0.0       0.0       0.7       1.3
 2 C  dxy             0.1       0.0       1.8       0.2       0.5       0.6
 3 C  s              17.7       5.4       0.0       8.9       0.0       0.0
 3 C  px             10.6       0.1       0.0       8.3       0.0       0.0
 3 C  py              0.0       0.0      26.4       0.0      21.1       5.7
 3 C  dz2             0.5       0.1       0.0       0.1       0.0       0.0
 3 C  dx2y2           2.2       1.7       0.0       0.8       0.0       0.0
 3 C  dxy             0.0       0.0       0.3       0.0       0.7       1.5
 4 C  s               5.2       0.3       2.3       8.1       0.5       2.3
 4 C  px              0.9      17.6       2.6       1.7       6.9       4.7
 4 C  py              1.1       1.5       4.0       3.9       4.6       9.2
 4 C  dz2             0.0       0.0       0.2       0.4       0.1       0.2
 4 C  dx2y2           0.8       0.6       0.0       0.0       0.7       1.3
 4 C  dxy             0.1       0.0       1.8       0.2       0.5       0.6
 5 C  s               5.2       0.3       2.3       8.1       0.6       2.3
 5 C  px              0.9      17.6       2.6       1.7       6.9       4.7
 5 C  py              1.0       1.5       4.0       3.9       4.6       9.2
 5 C  dz2             0.0       0.0       0.2       0.4       0.1       0.2
 5 C  dx2y2           0.8       0.6       0.0       0.0       0.7       1.3
 5 C  dxy             0.1       0.0       1.8       0.2       0.5       0.6
 6 H  s               0.8       0.1       0.2       0.8       0.0       1.9
 6 H  px              0.5       0.7       0.6       0.3       0.5       0.4
 6 H  py              0.0       0.5       0.0       0.5       0.3       0.7
 7 H  s               0.8       0.1       0.2       0.8       0.0       1.9
 7 H  px              0.5       0.7       0.6       0.3       0.5       0.4
 7 H  py              0.0       0.5       0.0       0.5       0.3       0.7
 8 H  s               0.8       0.1       0.2       0.8       0.0       1.9
 8 H  px              0.5       0.7       0.6       0.3       0.5       0.4
 8 H  py              0.0       0.5       0.0       0.5       0.3       0.7
 9 H  s               0.8       0.1       0.2       0.8       0.0       1.9
 9 H  px              0.5       0.7       0.6       0.3       0.5       0.4
 9 H  py              0.0       0.5       0.0       0.5       0.3       0.7

                     60        61        62        63        64        65   
                   1.42543   1.45779   1.47365   1.48534   1.49242   1.53937
                   0.00000   0.00000   0.00000   0.00000   0.00000   0.00000
                  --------  --------  --------  --------  --------  --------
 0 C  s               0.0       3.5       0.0       0.0       0.0       0.0
 0 C  pz              0.2       0.0       0.0       0.0       0.0       0.0
 0 C  px              0.0       0.7       0.0       0.0       0.0       0.0
 0 C  py              0.0       0.0       0.0       2.8       0.0       0.0
 0 C  dz2             0.0       0.1       0.0       0.0       0.0       0.0
 0 C  dxz             4.0       0.0       0.0       0.0       0.0       0.0
 0 C  dyz             0.0       0.0       5.0       0.0      12.2      11.4
 0 C  dx2y2           0.0       3.0       0.0       0.0       0.0       0.0
 1 C  s               0.0       2.4       0.0       0.8       0.0       0.0
 1 C  pz              0.2       0.0       0.6       0.0       0.0       0.5
 1 C  px              0.0       1.8       0.0       2.3       0.0       0.0
 1 C  py              0.0       8.9       0.0      14.7       0.0       0.0
 1 C  dxz             6.9       0.0       0.7       0.0      16.3       0.1
 1 C  dyz             5.4       0.0       9.9       0.0       1.2       8.6
 1 C  dx2y2           0.0       0.0       0.0       0.2       0.0       0.0
 1 C  dxy             0.0       2.8       0.0       0.9       0.0       0.0
 2 C  s               0.0       2.4       0.0       0.8       0.0       0.0
 2 C  pz              0.2       0.0       0.6       0.0       0.0       0.5
 2 C  px              0.0       1.8       0.0       2.3       0.0       0.0
 2 C  py              0.0       8.9       0.0      14.7       0.0       0.0
 2 C  dxz             6.9       0.0       0.7       0.0      16.3       0.1
 2 C  dyz             5.4       0.0      10.0       0.0       1.2       8.5
 2 C  dx2y2           0.0       0.0       0.0       0.2       0.0       0.0
 2 C  dxy             0.0       2.8       0.0       0.9       0.0       0.0
 3 C  s               0.0       3.5       0.0       0.0       0.0       0.0
 3 C  pz              0.2       0.0       0.0       0.0       0.0       0.0
 3 C  px              0.0       0.7       0.0       0.0       0.0       0.0
 3 C  py              0.0       0.0       0.0       2.8       0.0       0.0
 3 C  dz2             0.0       0.1       0.0       0.0       0.0       0.0
 3 C  dxz             4.0       0.0       0.0       0.0       0.0       0.0
 3 C  dyz             0.0       0.0       5.0       0.0      12.2      11.4
 3 C  dx2y2           0.0       3.0       0.0       0.0       0.0       0.0
 4 C  s               0.0       2.4       0.0       0.8       0.0       0.0
 4 C  pz              0.2       0.0       0.6       0.0       0.0       0.5
 4 C  px              0.0       1.8       0.0       2.3       0.0       0.0
 4 C  py              0.0       8.9       0.0      14.7       0.0       0.0
 4 C  dxz             6.9       0.0       0.7       0.0      16.3       0.1
 4 C  dyz             5.4       0.0      10.0       0.0       1.2       8.5
 4 C  dx2y2           0.0       0.0       0.0       0.2       0.0       0.0
 4 C  dxy             0.0       2.8       0.0       0.9       0.0       0.0
 5 C  s               0.0       2.4       0.0       0.8       0.0       0.0
 5 C  pz              0.2       0.0       0.6       0.0       0.0       0.5
 5 C  px              0.0       1.8       0.0       2.3       0.0       0.0
 5 C  py              0.0       8.9       0.0      14.7       0.0       0.0
 5 C  dxz             6.9       0.0       0.7       0.0      16.3       0.1
 5 C  dyz             5.4       0.0       9.9       0.0       1.2       8.6
 5 C  dx2y2           0.0       0.0       0.0       0.2       0.0       0.0
 5 C  dxy             0.0       2.8       0.0       0.9       0.0       0.0
 6 H  s               0.0       3.0       0.0       3.8       0.0       0.0
[...]
     Class V1_ija      ... done in        0.0 sec
     Class V2_ij       ... done in        0.0 sec
     Class V0_ia       ... done in        0.0 sec
     Class Vm1_a       ... done in        0.0 sec
     Class V1_i        ... done in        0.0 sec
 --------------------
  MULT 1, ROOT 1 
 --------------------
   --- Canonicalize Internal Space
   --- Canonicalize External Space

Entering the partial transformation section

-------------------------------
PARTIAL INTEGRAL TRANSFORMATION
-------------------------------

Dimension of the basis                     ...          104
Number of internal MOs                     ...           16 (6-21)
Pair cutoff                                ...    1.000e-11 Eh
Number of AO pairs included in the trafo   ...         5397
Total Number of distinct AO pairs          ...         5460
Memory devoted for trafo                   ...         1945 MB 
Memory needed per MO pair                  ...            0 MB
Max. Number of MO pairs treated together   ...        46691 
Memory needed per MO                       ...            1 MB
Max. Number of MOs treated per batch       ...           16 
Number Format for Storage                  ... Double (8 Byte)
Integral package used                      ... LIBINT

 --->>> The Coulomb operators (i,j|mue,nue) will be calculated
 --->>> The Exchange operators (i,mue|j,nue) will be calculated

Starting integral evaluation:
<ss|**>:       385628 b      580 skpd     0.183 s (  0.000 ms/b)
<sp|**>:       455952 b      598 skpd     0.367 s (  0.001 ms/b)
<sd|**>:       176972 b      314 skpd     0.189 s (  0.001 ms/b)
<pp|**>:       151852 b      142 skpd     0.255 s (  0.002 ms/b)
<pd|**>:       109004 b      132 skpd     0.257 s (  0.002 ms/b)
<dd|**>:        24069 b       18 skpd     0.078 s (  0.003 ms/b)
Collecting buffer AOJ 
    ... done with AO integral generation
Closing buffer AOJ ( 0.03 GB; CompressionRatio= 1.92)
Number of MO pairs included in the trafo   ...  136
    ... Now performing second half transformation
Closing buffer JAO ( 0.01 GB; CompressionRatio= 1.00)
Closing buffer KAO ( 0.01 GB; CompressionRatio= 1.00)
TOTAL TIME for half transformation ...     1.978 sec
AO-integral generation             ...     1.084 sec
Quarter transformation             ...     0.245 sec
J-operator construction            ...     0.052 sec
K-operator construction            ...     0.597 sec
Collecting buffer JAO 
Collecting buffer KAO 
   ... leaving the partial transformation section

     D1, D2 Build      ... done in        0.0 sec
     D3 Build          ... CI space truncated: 19 -> 8 CFGs 
                       ... RI space truncated: 19 -> 19 CFGs 
                       ... 
                       ... correcting norm (1.000000e+00) 
                       ... done in        0.0 sec
     D4 Build          ... CI space truncated: 19 -> 8 CFGs 
                       ... RI space truncated: 19 -> 19 CFGs 
                       ... 
                       ... correcting norm (1.000000e+00) 
                       ... done in        0.0 sec
     Hole densities    ... done in        0.0 sec
     Calc Fock         ... done in        0.6 sec
     Class V0_ijab     ... done in        0.0 sec
     Class Vm1_iab     ... done in        0.0 sec
     Class Vm2_ab      ... done in        0.0 sec
     Class V1_ija      ... done in        0.0 sec
     Class V2_ij       ... done in        0.0 sec
     Class V0_ia       ... done in        0.0 sec
     Class Vm1_a       ... done in        0.0 sec
     Class V1_i        ... done in        0.0 sec
 ===============================================================
                       NEVPT2 Results  
 ===============================================================
   *********************
    MULT 3, ROOT 0 
   *********************

  Class V0_ijab :	 dE = -0.461837948101 
  Class Vm1_iab :	 dE = -0.119770783704 
  Class Vm2_ab  :	 dE = -0.014749768645 
  Class V1_ija  :	 dE = -0.050065887744 
  Class V2_ij   :	 dE = -0.003091289110 
  Class V0_ia   :	 dE = -0.058243193604 
  Class Vm1_a   :	 dE = -0.007444813142 
  Class V1_i    :	 dE = -0.004278989257 

 --------------------------------------------------------------- 
 	 Total Energy Correction : dE = -0.71948267330802
 --------------------------------------------------------------- 
 	 Reference  Energy       : E0 = -229.23117469597116
 --------------------------------------------------------------- 
 	 Total Energy (E0+dE)    : E  = -229.95065736927918
 --------------------------------------------------------------- 

   *********************
    MULT 3, ROOT 1 
   *********************

  Class V0_ijab :	 dE = -0.462196774019 
  Class Vm1_iab :	 dE = -0.111523975677 
  Class Vm2_ab  :	 dE = -0.018386041242 
  Class V1_ija  :	 dE = -0.065589002539 
  Class V2_ij   :	 dE = -0.003858409253 
  Class V0_ia   :	 dE = -0.056763694925 
  Class Vm1_a   :	 dE = -0.014430489725 
  Class V1_i    :	 dE = -0.009786190412 

 --------------------------------------------------------------- 
 	 Total Energy Correction : dE = -0.74253457779403
 --------------------------------------------------------------- 
 	 Reference  Energy       : E0 = -229.10805040482305
 --------------------------------------------------------------- 
 	 Total Energy (E0+dE)    : E  = -229.85058498261708
 --------------------------------------------------------------- 

   *********************
    MULT 1, ROOT 0 
   *********************

  Class V0_ijab :	 dE = -0.461915770581 
  Class Vm1_iab :	 dE = -0.118610318250 
  Class Vm2_ab  :	 dE = -0.014890946572 
  Class V1_ija  :	 dE = -0.050901538961 
  Class V2_ij   :	 dE = -0.003465456972 
  Class V0_ia   :	 dE = -0.060204733027 
  Class Vm1_a   :	 dE = -0.006157962729 
  Class V1_i    :	 dE = -0.003300380905 

 --------------------------------------------------------------- 
 	 Total Energy Correction : dE = -0.71944710799787
 --------------------------------------------------------------- 
 	 Reference  Energy       : E0 = -229.23847768744528
 --------------------------------------------------------------- 
 	 Total Energy (E0+dE)    : E  = -229.95792479544315
 --------------------------------------------------------------- 

   *********************
    MULT 1, ROOT 1 
   *********************

  Class V0_ijab :	 dE = -0.462206018943 
  Class Vm1_iab :	 dE = -0.111857847052 
  Class Vm2_ab  :	 dE = -0.021000186349 
  Class V1_ija  :	 dE = -0.066299282104 
  Class V2_ij   :	 dE = -0.004179202941 
  Class V0_ia   :	 dE = -0.060558208039 
  Class Vm1_a   :	 dE = -0.019172400878 
  Class V1_i    :	 dE = -0.014824362706 

 --------------------------------------------------------------- 
 	 Total Energy Correction : dE = -0.76009750901221
 --------------------------------------------------------------- 
 	 Reference  Energy       : E0 = -229.06901502891438
 --------------------------------------------------------------- 
 	 Total Energy (E0+dE)    : E  = -229.82911253792659
 --------------------------------------------------------------- 

-----------------------
 NEVPT2 TOTAL ENERGIES
-----------------------
# This can be used as input for the MRCI SOC block to replace
# the diagonal energies within the QDPT treatment. 
# Note that multiplicty blocks must be ordered in decending order e.g. mult 5,3,1! 

STATE   ROOT MULT  Energy/a.u.   MRCI SOC BLOCK INPUT (cm**-1)
   0:    0    3  -229.950657    EDIAG[0] -50468335.756961
   1:    1    3  -229.850585    EDIAG[1] -50446372.406789
   2:    0    1  -229.957925    EDIAG[2] -50469930.772639
   3:    1    1  -229.829113    EDIAG[3] -50441659.749906

-----------------------------
 NEVPT2 TRANSITION ENERGIES
------------------------------

LOWEST ROOT (ROOT 0, MULT 1) =   -229.957924795 Eh -6257.473 eV

STATE ROOT MULT  DE/a.u.     DE/eV    DE/cm**-1
   1:   0    3   0.007267     0.198   1595.0
   2:   1    3   0.107340     2.921  23558.4
   3:   1    1   0.128812     3.505  28271.0

--------------------------------------------
 NEVPT2 CORRECTION TO THE TRANSITION ENERGY
--------------------------------------------
STATE  ROOT MULT DE/a.u. DE/eV 	DE/cm**-1
   1:    0    3  -0.000036     -0.001     -7.8

   Class     DE/a.u.       DE/eV     DE/cm**-1
   V0_ijab   0.000078      0.002      17.1  (-218.82%)
   Vm1_iab   0.000000      0.000       0.0  (-0.00%)
   Vm2_ab    0.000141      0.004      31.0  (-396.95%)
   V1_ija    0.000836      0.023     183.4  (-2349.62%)
   V2_ij     0.000374      0.010      82.1  (-1052.06%)
   V0_ia     0.001962      0.053     430.5  (-5515.32%)
   Vm1_a    -0.001287     -0.035    -282.4  (3618.27%)
   V1_i     -0.000979     -0.027    -214.8  (2751.58%)

STATE  ROOT MULT DE/a.u. DE/eV 	DE/cm**-1
   2:    1    3  -0.023087     -0.628  -5067.1

   Class     DE/a.u.       DE/eV     DE/cm**-1
   V0_ijab  -0.000281     -0.008     -61.7  (1.22%)
   Vm1_iab   0.008247      0.224    1810.0  (-35.72%)
   Vm2_ab   -0.003495     -0.095    -767.1  (15.14%)
   V1_ija   -0.014687     -0.400   -3223.5  (63.62%)
   V2_ij    -0.000393     -0.011     -86.2  (1.70%)
   V0_ia     0.003441      0.094     755.2  (-14.90%)
   Vm1_a    -0.008273     -0.225   -1815.6  (35.83%)
   V1_i     -0.006486     -0.176   -1423.5  (28.09%)

STATE  ROOT MULT DE/a.u. DE/eV 	DE/cm**-1
   3:    1    1  -0.040650     -1.106  -8921.7

   Class     DE/a.u.       DE/eV     DE/cm**-1
   V0_ijab  -0.000290     -0.008     -63.7  (0.71%)
   Vm1_iab   0.007913      0.215    1736.7  (-19.47%)
   Vm2_ab   -0.006109     -0.166   -1340.8  (15.03%)
   V1_ija   -0.015398     -0.419   -3379.4  (37.88%)
   V2_ij    -0.000714     -0.019    -156.6  (1.76%)
   V0_ia    -0.000353     -0.010     -77.6  (0.87%)
   Vm1_a    -0.013014     -0.354   -2856.3  (32.02%)
   V1_i     -0.011524     -0.314   -2529.2  (28.35%)


--------------
TIMINGS NEVPT2
--------------

Sum of individual times        ...       14.9 sec (100.0%)

   Integraltransformation      ...        9.2 sec ( 61.9%)
   Building Fock and alike     ...        2.6 sec ( 17.2%)
   Building D2,D1              ...        0.0 sec (  0.0%)
   Building D3                 ...        0.0 sec (  0.0%)
   Building D4                 ...        0.0 sec (  0.1%)
   All densities               ...        0.0 sec (  0.1%)
   Hole Densities              ...        0.0 sec (  0.0%)
   Re-Canonicalization         ...        3.1 sec ( 20.5%)
   Classes Vijab               ...        0.0 sec (  0.0%)
   Class Viab                  ...        0.0 sec (  0.1%)
   Class Vab                   ...        0.0 sec (  0.1%)
   Class Vija                  ...        0.0 sec (  0.0%)
   Class Vij                   ...        0.0 sec (  0.0%)
   Class Via                   ...        0.0 sec (  0.0%)
   Class Va                    ...        0.0 sec (  0.0%)
   Class Vi                    ...        0.0 sec (  0.0%)
   All Classes                 ...        0.0 sec (  0.3%)

-------------------------------------------------------------
 Forming the transition density       ... done in 0.001068 sec
-------------------------------------------------------------



==========================================
CASSCF UV, CD spectra and dipole moments
==========================================
-------------------
ABSORPTION SPECTRUM
-------------------

Center of mass           = ( -0.0558,  0.9281,  0.0000)
Nuclear contribution to the dipole moment =     0.000000,   -0.000000,    0.000000 au

Calculating the dipole integrals                  ... done
Transforming integrals                            ... done
Calculating the Linear Momentum integrals         ... done
Transforming integrals                            ... done
Calculating the Angular Momentum integrals        ... done
Transforming integrals                            ... done

Ground state mult:    1
Ground state block:   1
Ground state root:    0


------------------------------------------------------------------------------------------
                                ABSORPTION SPECTRUM
------------------------------------------------------------------------------------------
  States           Energy   Wavelength   fosc          T2        TX         TY        TZ  
                   (cm-1)     (nm)                   (D**2)      (D)        (D)       (D) 
------------------------------------------------------------------------------------------
  0( 1)-> 1( 1) 1   37192.8    268.9   0.000000004   0.00000  -0.00000  -0.00000  -0.00045
------------------------------------------------------------------------------------------



------------------------------------------------------------------------------
                             CD SPECTRUM
------------------------------------------------------------------------------
      States        Energy   Wavelength   R*T        RX        RY        RZ   
                    (cm-1)      (nm)   (1e40*sgs)   (au)      (au)      (au)  
------------------------------------------------------------------------------
  0( 1)-> 1( 1) 1   37192.8    268.9     0.00000  -0.00000  -0.34085   0.00000
------------------------------------------------------------------------------

------------------------------------------------------------------------------
                                 DIPOLE MOMENTS
------------------------------------------------------------------------------
  Root  Block           TX        TY        TZ           |T|
                      (Debye)   (Debye)   (Debye)      (Debye)
------------------------------------------------------------------------------
    0    1           -0.00050   0.00000  -0.00000      0.00050


=====================================================================
CASSCF (NEVPT2 diagonal energies) UV, CD spectra and dipole moments
=====================================================================
-------------------
ABSORPTION SPECTRUM
-------------------

Center of mass           = ( -0.0558,  0.9281,  0.0000)
Nuclear contribution to the dipole moment =     0.000000,   -0.000000,    0.000000 au

Calculating the dipole integrals                  ... done
Transforming integrals                            ... done
Calculating the Linear Momentum integrals         ... done
Transforming integrals                            ... done
Calculating the Angular Momentum integrals        ... done
Transforming integrals                            ... done

Ground state mult:    1
Ground state block:   1
Ground state root:    0


------------------------------------------------------------------------------------------
                                ABSORPTION SPECTRUM
------------------------------------------------------------------------------------------
  States           Energy   Wavelength   fosc          T2        TX         TY        TZ  
                   (cm-1)     (nm)                   (D**2)      (D)        (D)       (D) 
------------------------------------------------------------------------------------------
  0( 1)-> 1( 1) 1   28271.0    353.7   0.000000003   0.00000  -0.00000  -0.00000  -0.00045
------------------------------------------------------------------------------------------



------------------------------------------------------------------------------
                             CD SPECTRUM
------------------------------------------------------------------------------
      States        Energy   Wavelength   R*T        RX        RY        RZ   
                    (cm-1)      (nm)   (1e40*sgs)   (au)      (au)      (au)  
------------------------------------------------------------------------------
  0( 1)-> 1( 1) 1   28271.0    353.7     0.00000  -0.00000  -0.34085   0.00000
------------------------------------------------------------------------------

------------------------------------------------------------------------------
                                 DIPOLE MOMENTS
------------------------------------------------------------------------------
  Root  Block           TX        TY        TZ           |T|
                      (Debye)   (Debye)   (Debye)      (Debye)
------------------------------------------------------------------------------
    0    1           -0.00050   0.00000  -0.00000      0.00050

--------------
CASSCF TIMINGS
--------------

Total time                       ...       36.9 sec
Sum of individual times          ...       35.6 sec ( 96.7%)

Calculation of AO operators
   F(Core) operator              ...        4.9 sec ( 13.2%)
   G(Act) operator               ...        4.8 sec ( 13.0%)
   J(AO) operators               ...        0.0 sec (  0.0%)
Calculation of MO transformed quantities
   J(MO) operators               ...       11.0 sec ( 29.8%)
   (pq|rs) integrals             ...        0.0 sec (  0.0%)
   AO->MO one electron integrals ...        0.0 sec (  0.0%)
Configuration interaction steps
   CI-setup phase                ...        0.0 sec (  0.0%)
   CI-solution phase             ...        0.0 sec (  0.1%)
   Generation of densities       ...        0.0 sec (  0.0%)
Orbital improvement steps
   Orbital gradient              ...        0.0 sec (  0.0%)
   O(1) converger                ...        0.0 sec (  0.0%)
PT2 
   NEVPT2 time                   ...       14.9 sec ( 40.4%)
Properties                       ...        0.0 sec (  0.0%)
   SOC integral calculation      ...        0.0 sec (  0.0%)
   SSC RMEs (incl. integrals)    ...        0.0 sec (  0.0%)
   SOC RMEs                      ...        0.0 sec (  0.0%)

-------------------------   --------------------
FINAL SINGLE POINT ENERGY      -229.897069921317
-------------------------   --------------------


                            ***************************************
                            *     ORCA property calculations      *
                            ***************************************

                                    ---------------------
                                    Active property flags
                                    ---------------------
   (+) Dipole Moment


------------------------------------------------------------------------------
                       ORCA ELECTRIC PROPERTIES CALCULATION
------------------------------------------------------------------------------

Dipole Moment Calculation                       ... on
Quadrupole Moment Calculation                   ... off
Polarizability Calculation                      ... off
GBWName                                         ... _cas44.gbw
Electron density file                           ... _cas44.scfp
The origin for moment calculation is the CENTER OF MASS  = (-0.055790,  0.928126  0.000000)

-------------
DIPOLE MOMENT
-------------
                                X             Y             Z
Electronic contribution:      0.00204       0.00000       0.00000
Nuclear contribution   :      0.00000      -0.00000       0.00000
                        -----------------------------------------
Total Dipole Moment    :      0.00204      -0.00000       0.00000
                        -----------------------------------------
Magnitude (a.u.)       :      0.00204
Magnitude (Debye)      :      0.00520



--------------------
Rotational spectrum 
--------------------
 
Rotational constants in cm-1:     0.229530     0.186814     0.102990 
Rotational constants in MHz :  6881.147990  5600.536815  3087.573773 

 Dipole components along the rotational axes: 
x,y,z [a.u.] :     0.000000    -0.002044     0.000000 
x,y,z [Debye]:     0.000000    -0.005196     0.000000 

 

Timings for individual modules:

Sum of individual times         ...       42.124 sec (=   0.702 min)
GTO integral calculation        ...        1.770 sec (=   0.029 min)   4.2 %
SCF iterations                  ...        0.576 sec (=   0.010 min)   1.4 %
CASSCF iterations               ...       39.778 sec (=   0.663 min)  94.4 %
                             ****ORCA TERMINATED NORMALLY****
TOTAL RUN TIME: 0 days 0 hours 0 minutes 42 seconds 725 msec
