
                                 *****************
                                 * O   R   C   A *
                                 *****************

           --- An Ab Initio, DFT and Semiempirical electronic structure package ---

                  #######################################################
                  #                        -***-                        #
                  #          Department of theory and spectroscopy      #
                  #               Directorship: Frank Neese             #
                  #        Max Planck Institute fuer Kohlenforschung    #
                  #                Kaiser Wilhelm Platz 1               #
                  #                 D-45470 Muelheim/Ruhr               #
                  #                      Germany                        #
                  #                                                     #
                  #                  All rights reserved                #
                  #                        -***-                        #
                  #######################################################


                         Program Version 4.2.1 -  RELEASE  -


 With contributions from (in alphabetic order):
   Daniel Aravena         : Magnetic Suceptibility
   Michael Atanasov       : Ab Initio Ligand Field Theory (pilot matlab implementation)
   Alexander A. Auer      : GIAO ZORA, VPT2
   Ute Becker             : Parallelization
   Giovanni Bistoni       : ED, misc. LED, open-shell LED, HFLD
   Martin Brehm           : Molecular dynamics
   Dmytro Bykov           : SCF Hessian
   Vijay G. Chilkuri      : MRCI spin determinant printing, contributions to CSF-ICE
   Dipayan Datta          : RHF DLPNO-CCSD density
   Achintya Kumar Dutta   : EOM-CC, STEOM-CC
   Dmitry Ganyushin       : Spin-Orbit,Spin-Spin,Magnetic field MRCI
   Miquel Garcia          : C-PCM Hessian, Gaussian charge scheme
   Yang Guo               : DLPNO-NEVPT2, CIM, IAO-localization
   Andreas Hansen         : Spin unrestricted coupled pair/coupled cluster methods
   Benjamin Helmich-Paris : CASSCF linear response (MC-RPA)
   Lee Huntington         : MR-EOM, pCC
   Robert Izsak           : Overlap fitted RIJCOSX, COSX-SCS-MP3, EOM
   Christian Kollmar      : KDIIS, OOCD, Brueckner-CCSD(T), CCSD density
   Simone Kossmann        : Meta GGA functionals, TD-DFT gradient, OOMP2, MP2 Hessian
   Martin Krupicka        : AUTO-CI
   Lucas Lang             : DCDCAS
   Dagmar Lenk            : GEPOL surface, SMD
   Dimitrios Liakos       : Extrapolation schemes; Compound Job, initial MDCI parallelization
   Dimitrios Manganas     : Further ROCIS development; embedding schemes
   Dimitrios Pantazis     : SARC Basis sets
   Taras Petrenko         : DFT Hessian,TD-DFT gradient, ASA, ECA, R-Raman, ABS, FL, XAS/XES, NRVS
   Peter Pinski           : DLPNO-MP2, DLPNO-MP2 Gradient
   Christoph Reimann      : Effective Core Potentials
   Marius Retegan         : Local ZFS, SOC
   Christoph Riplinger    : Optimizer, TS searches, QM/MM, DLPNO-CCSD(T), (RO)-DLPNO pert. Triples
   Tobias Risthaus        : Range-separated hybrids, TD-DFT gradient, RPA, STAB
   Michael Roemelt        : Original ROCIS implementation
   Masaaki Saitow         : Open-shell DLPNO-CCSD energy and density
   Barbara Sandhoefer     : DKH picture change effects
   Avijit Sen             : IP-ROCIS
   Kantharuban Sivalingam : CASSCF convergence, NEVPT2, FIC-MRCI
   Bernardo de Souza      : ESD, SOC TD-DFT
   Georgi Stoychev        : AutoAux, RI-MP2 NMR
   Willem Van den Heuvel  : Paramagnetic NMR
   Boris Wezisla          : Elementary symmetry handling
   Frank Wennmohs         : Technical directorship


 We gratefully acknowledge several colleagues who have allowed us to
 interface, adapt or use parts of their codes:
   Stefan Grimme, W. Hujo, H. Kruse,             : VdW corrections, initial TS optimization,
                  C. Bannwarth                     DFT functionals, gCP, sTDA/sTD-DF
   Ed Valeev, F. Pavosevic, A. Kumar             : LibInt (2-el integral package), F12 methods
   Garnet Chan, S. Sharma, J. Yang, R. Olivares  : DMRG
   Ulf Ekstrom                                   : XCFun DFT Library
   Mihaly Kallay                                 : mrcc  (arbitrary order and MRCC methods)
   Andreas Klamt, Michael Diedenhofen            : otool_cosmo (COSMO solvation model)
   Jiri Pittner, Ondrej Demel                    : Mk-CCSD
   Frank Weinhold                                : gennbo (NPA and NBO analysis)
   Christopher J. Cramer and Donald G. Truhlar   : smd solvation model
   Lars Goerigk                                  : TD-DFT with DH, B97 family of functionals
   V. Asgeirsson, H. Jonsson                     : NEB implementation
   FAccTs GmbH                                   : IRC, NEB, NEB-TS, Multilevel, MM, QM/MM, CI optimization
   S Lehtola, MJT Oliveira, MAL Marques          : LibXC Library


 Your calculation uses the libint2 library for the computation of 2-el integrals
 For citations please refer to: http://libint.valeyev.net

 Your ORCA version has been built with support for libXC version: 4.2.3
 For citations please refer to: https://tddft.org/programs/libxc/

 This ORCA versions uses:
   CBLAS   interface :  Fast vector & matrix operations
   LAPACKE interface :  Fast linear algebra routines


leaving
----- Orbital basis set information -----
Your calculation utilizes the basis: def2-SVP
   F. Weigend and R. Ahlrichs, Phys. Chem. Chem. Phys. 7, 3297 (2005).

================================================================================
                                        WARNINGS
                       Please study these warnings very carefully!
================================================================================


WARNING: Direct SCF is incompatible with Method<>HF and Method<>DFT
  ===> : conventional SCF is chosen

WARNING: The NDO methods need Guess=HUECKEL or Guess=HCORE or Guess=MOREAD
  ===> : Guess is set to Hueckel

WARNING: The NDO methods need %rel::SOCType==1
  ===> : %rel::SOCType is set to 1
INFO   : Checking CIS options ...

WARNING: CIS/ROCIS methods need fully converged wavefunctions
  ===> : Setting SCFConvForced true
         You can overwrite this default with %scf ConvForced false 


INFO   : the flag for use of LIBINT has been found!

================================================================================
                                       INPUT FILE
================================================================================
NAME = ligando-30-SRM1-S.orcinp
|  1> !RHF ZINDO/S TightSCF DIIS PrintBasis
|  2> %method
|  3> 	frozencore fc_ewin
|  4> end
|  5> %cis
|  6> 	ewin -0.299826,0.127428
|  7> 	nroots 25
|  8> 	maxdim 100
|  9> 	Triplets true
| 10> end
| 11> %output
| 12> 	print[p_mos] 1
| 13> end
| 14> %pointcharges "ligando-30-SRM1-S.pointcharge"
| 15> *xyz -4 1
| 16> 
| 17> N       -0.0232    2.2103   -2.1735
| 18> O       -1.4672    0.0583   -1.7808
| 19> N        1.9966    2.3101   -0.4894
| 20> N        0.1394   -3.1773    0.0600
| 21> N       -1.3963   -1.8168    1.7726
| 22> O        1.4193   -1.7987   -1.6187
| 23> O       -1.3430    0.6954    1.5573
| 24> O        1.9988    0.2275    1.0999
| 25> C       -1.1036    2.1206   -2.9412
| 26> C       -1.4636    3.1532   -3.8406
| 27> C       -0.6724    4.2867   -3.9015
| 28> C        0.4812    4.4090   -3.0897
| 29> C        0.7460    3.3329   -2.2366
| 30> C       -1.8890    0.8269   -2.7231
| 31> O       -2.8626    0.5845   -3.4314
| 32> C        1.3876    5.5198   -3.0655
| 33> C        1.8678    3.3793   -1.3235
| 34> C        2.7231    4.4857   -1.3053
| 35> C        2.4475    5.5585   -2.2159
| 36> H        3.1090    6.4302   -2.2056
| 37> H        1.2131    6.3468   -3.7607
| 38> C        3.7742    4.4407   -0.3577
| 39> C        3.8970    3.3718    0.5123
| 40> C        2.9685    2.3071    0.4161
| 41> C        4.7474    5.5283   -0.2897
| 42> C        5.5175    5.8451   -1.4057
| 43> C        6.4533    6.8687   -1.3270
| 44> C        6.6196    7.5731   -0.1405
| 45> C        5.8537    7.2501    0.9731
| 46> C        4.9190    6.2247    0.9037
| 47> H        5.3922    5.2808   -2.3352
| 48> H        7.0621    7.1179   -2.2006
| 49> H        7.3557    8.3794   -0.0824
| 50> H        5.9879    7.8015    1.9079
| 51> C       -1.0534    5.3711   -4.8035
| 52> C       -1.3162    6.6405   -4.2951
| 53> C       -1.1808    5.1193   -6.1669
| 54> C       -1.5570    6.1463   -7.0235
| 55> C       -1.6960    7.6612   -5.1575
| 56> C       -1.8134    7.4162   -6.5205
| 57> H       -0.9837    4.1164   -6.5585
| 58> H       -2.1113    8.2220   -7.1968
| 59> H       -1.6544    5.9527   -8.0954
| 60> H       -1.9057    8.6586   -4.7612
| 61> H       -1.2356    6.8269   -3.2195
| 62> H        4.3177    5.9640    1.7803
| 63> C        0.9060   -3.8993   -0.7956
| 64> C        1.0281   -5.3020   -0.7804
| 65> C        0.3312   -6.0197    0.1608
| 66> C       -0.5169   -5.3360    1.0653
| 67> C       -2.1902   -3.8999    2.8364
| 68> C       -3.0134   -3.1461    3.7076
| 69> C       -2.9955   -1.7750    3.6303
| 70> C       -2.1833   -1.1575    2.6598
| 71> H       -3.6016   -1.1423    4.2897
| 72> C        1.6791   -3.0318   -1.8277
| 73> C       -2.1284    0.3892    2.5167
| 74> O        2.3940   -3.5555   -2.6637
| 75> O       -2.7757    1.1025    3.2630
| 76> C        0.4834   -7.4715    0.2159
| 77> C        0.9857   -8.0761    1.3650
| 78> C        1.1535   -9.4547    1.3960
| 79> C        0.8205  -10.2235    0.2868
| 80> C        0.3259   -9.6144   -0.8604
| 81> C        0.1610   -8.2355   -0.9023
| 82> H        1.2596   -7.4667    2.2321
| 83> H        0.9525  -11.3089    0.3153
| 84> H        1.5523   -9.9343    2.2945
| 85> H       -0.2199   -7.7514   -1.8072
| 86> H        0.0699  -10.2197   -1.7349
| 87> C       -3.8853   -3.8006    4.6798
| 88> C       -4.8895   -4.6617    4.2459
| 89> C       -3.7277   -3.5237    6.0349
| 90> C       -5.7318   -5.2561    5.1770
| 91> C       -5.5707   -4.9924    6.5324
| 92> C       -4.5705   -4.1274    6.9600
| 93> H       -2.9444   -2.8350    6.3676
| 94> H       -5.0224   -4.8568    3.1770
| 95> H       -6.5252   -5.9299    4.8413
| 96> H       -4.4480   -3.9162    8.0263
| 97> H       -6.2353   -5.4629    7.2627
| 98> C        2.9520    1.0665    1.3098
| 99> O        3.8189    0.9292    2.1688
|100> H        4.6922    3.3225    1.2619
|101> H        1.6881   -5.7814   -1.5132
|102> H       -2.3608    3.0388   -4.4559
|103> C       -0.5738   -3.9426    0.9823
|104> C       -1.4201   -3.2054    1.9004
|105> C       -1.3154   -6.0147    2.0382
|106> C       -2.1107   -5.3267    2.8913
|107> H       -1.2836   -7.1084    2.0770
|108> H       -2.6976   -5.8592    3.6467
|109> **                         ****END OF INPUT****
================================================================================

                       ****************************
                       * Single Point Calculation *
                       ****************************

---------------------------------
CARTESIAN COORDINATES (ANGSTROEM)
---------------------------------
  N     -0.023200    2.210300   -2.173500
  O     -1.467200    0.058300   -1.780800
  N      1.996600    2.310100   -0.489400
  N      0.139400   -3.177300    0.060000
  N     -1.396300   -1.816800    1.772600
  O      1.419300   -1.798700   -1.618700
  O     -1.343000    0.695400    1.557300
  O      1.998800    0.227500    1.099900
  C     -1.103600    2.120600   -2.941200
  C     -1.463600    3.153200   -3.840600
  C     -0.672400    4.286700   -3.901500
  C      0.481200    4.409000   -3.089700
  C      0.746000    3.332900   -2.236600
  C     -1.889000    0.826900   -2.723100
  O     -2.862600    0.584500   -3.431400
  C      1.387600    5.519800   -3.065500
  C      1.867800    3.379300   -1.323500
  C      2.723100    4.485700   -1.305300
  C      2.447500    5.558500   -2.215900
  H      3.109000    6.430200   -2.205600
  H      1.213100    6.346800   -3.760700
  C      3.774200    4.440700   -0.357700
  C      3.897000    3.371800    0.512300
  C      2.968500    2.307100    0.416100
  C      4.747400    5.528300   -0.289700
  C      5.517500    5.845100   -1.405700
  C      6.453300    6.868700   -1.327000
  C      6.619600    7.573100   -0.140500
  C      5.853700    7.250100    0.973100
  C      4.919000    6.224700    0.903700
  H      5.392200    5.280800   -2.335200
  H      7.062100    7.117900   -2.200600
  H      7.355700    8.379400   -0.082400
  H      5.987900    7.801500    1.907900
  C     -1.053400    5.371100   -4.803500
  C     -1.316200    6.640500   -4.295100
  C     -1.180800    5.119300   -6.166900
  C     -1.557000    6.146300   -7.023500
  C     -1.696000    7.661200   -5.157500
  C     -1.813400    7.416200   -6.520500
  H     -0.983700    4.116400   -6.558500
  H     -2.111300    8.222000   -7.196800
  H     -1.654400    5.952700   -8.095400
  H     -1.905700    8.658600   -4.761200
  H     -1.235600    6.826900   -3.219500
  H      4.317700    5.964000    1.780300
  C      0.906000   -3.899300   -0.795600
  C      1.028100   -5.302000   -0.780400
  C      0.331200   -6.019700    0.160800
  C     -0.516900   -5.336000    1.065300
  C     -2.190200   -3.899900    2.836400
  C     -3.013400   -3.146100    3.707600
  C     -2.995500   -1.775000    3.630300
  C     -2.183300   -1.157500    2.659800
  H     -3.601600   -1.142300    4.289700
  C      1.679100   -3.031800   -1.827700
  C     -2.128400    0.389200    2.516700
  O      2.394000   -3.555500   -2.663700
  O     -2.775700    1.102500    3.263000
  C      0.483400   -7.471500    0.215900
  C      0.985700   -8.076100    1.365000
  C      1.153500   -9.454700    1.396000
  C      0.820500  -10.223500    0.286800
  C      0.325900   -9.614400   -0.860400
  C      0.161000   -8.235500   -0.902300
  H      1.259600   -7.466700    2.232100
  H      0.952500  -11.308900    0.315300
  H      1.552300   -9.934300    2.294500
  H     -0.219900   -7.751400   -1.807200
  H      0.069900  -10.219700   -1.734900
  C     -3.885300   -3.800600    4.679800
  C     -4.889500   -4.661700    4.245900
  C     -3.727700   -3.523700    6.034900
  C     -5.731800   -5.256100    5.177000
  C     -5.570700   -4.992400    6.532400
  C     -4.570500   -4.127400    6.960000
  H     -2.944400   -2.835000    6.367600
  H     -5.022400   -4.856800    3.177000
  H     -6.525200   -5.929900    4.841300
  H     -4.448000   -3.916200    8.026300
  H     -6.235300   -5.462900    7.262700
  C      2.952000    1.066500    1.309800
  O      3.818900    0.929200    2.168800
  H      4.692200    3.322500    1.261900
  H      1.688100   -5.781400   -1.513200
  H     -2.360800    3.038800   -4.455900
  C     -0.573800   -3.942600    0.982300
  C     -1.420100   -3.205400    1.900400
  C     -1.315400   -6.014700    2.038200
  C     -2.110700   -5.326700    2.891300
  H     -1.283600   -7.108400    2.077000
  H     -2.697600   -5.859200    3.646700

----------------------------
CARTESIAN COORDINATES (A.U.)
----------------------------
  NO LB      ZA    FRAG     MASS         X           Y           Z
   0 N     5.0000    0    14.007   -0.043842    4.176862   -4.107320
   1 O     6.0000    0    15.999   -2.772606    0.110171   -3.365224
   2 N     5.0000    0    14.007    3.773027    4.365456   -0.924832
   3 N     5.0000    0    14.007    0.263428   -6.004227    0.113384
   4 N     5.0000    0    14.007   -2.638625   -3.433254    3.349729
   5 O     6.0000    0    15.999    2.682088   -3.399050   -3.058900
   6 O     6.0000    0    15.999   -2.537902    1.314116    2.942871
   7 O     6.0000    0    15.999    3.777185    0.429913    2.078510
   8 C     4.0000    0    12.011   -2.085502    4.007353   -5.558063
   9 C     4.0000    0    12.011   -2.765803    5.958684   -7.257682
  10 C     4.0000    0    12.011   -1.270652    8.100689   -7.372767
  11 C     4.0000    0    12.011    0.909336    8.331803   -5.838687
  12 C     4.0000    0    12.011    1.409736    6.298268   -4.226561
  13 C     4.0000    0    12.011   -3.569693    1.562615   -5.145913
  14 O     6.0000    0    15.999   -5.409530    1.104545   -6.484406
  15 C     4.0000    0    12.011    2.622184   10.430910   -5.792955
  16 C     4.0000    0    12.011    3.529630    6.385952   -2.501053
  17 C     4.0000    0    12.011    5.145913    8.476745   -2.466660
  18 C     4.0000    0    12.011    4.625105   10.504043   -4.187444
  19 H     1.0000    0     1.008    5.875159   12.151317   -4.167980
  20 H     1.0000    0     1.008    2.292427   11.993714   -7.106693
  21 C     4.0000    0    12.011    7.132204    8.391707   -0.675955
  22 C     4.0000    0    12.011    7.364263    6.371779    0.968107
  23 C     4.0000    0    12.011    5.609652    4.359787    0.786315
  24 C     4.0000    0    12.011    8.971286   10.446973   -0.547454
  25 C     4.0000    0    12.011   10.426564   11.045638   -2.656388
  26 C     4.0000    0    12.011   12.194970   12.979962   -2.507667
  27 C     4.0000    0    12.011   12.509231   14.311085   -0.265507
  28 C     4.0000    0    12.011   11.061890   13.700703    1.838893
  29 C     4.0000    0    12.011    9.295563   11.762978    1.707746
  30 H     1.0000    0     1.008   10.189781    9.979266   -4.412888
  31 H     1.0000    0     1.008   13.345435   13.450882   -4.158531
  32 H     1.0000    0     1.008   13.900259   15.834771   -0.155713
  33 H     1.0000    0     1.008   11.315491   14.742698    3.605408
  34 C     4.0000    0    12.011   -1.990638   10.149908   -9.077299
  35 C     4.0000    0    12.011   -2.487258   12.548726   -8.116563
  36 C     4.0000    0    12.011   -2.231389    9.674075  -11.653752
  37 C     4.0000    0    12.011   -2.942304   11.614824  -13.272492
  38 C     4.0000    0    12.011   -3.204976   14.477570   -9.746263
  39 C     4.0000    0    12.011   -3.426829   14.014587  -12.321959
  40 H     1.0000    0     1.008   -1.858924    7.778869  -12.393769
  41 H     1.0000    0     1.008   -3.989779   15.537328  -13.599981
  42 H     1.0000    0     1.008   -3.126363   11.248973  -15.298089
  43 H     1.0000    0     1.008   -3.601251   16.362383   -8.997364
  44 H     1.0000    0     1.008   -2.334946   12.900971   -6.083973
  45 H     1.0000    0     1.008    8.159271   11.270327    3.364279
  46 C     4.0000    0    12.011    1.712092   -7.368609   -1.503466
  47 C     4.0000    0    12.011    1.942827  -10.019328   -1.474742
  48 C     4.0000    0    12.011    0.625877  -11.375584    0.303868
  49 C     4.0000    0    12.011   -0.976799  -10.083579    2.013125
  50 C     4.0000    0    12.011   -4.138878   -7.369743    5.360019
  51 C     4.0000    0    12.011   -5.694501   -5.945267    7.006349
  52 C     4.0000    0    12.011   -5.660675   -3.354264    6.860273
  53 C     4.0000    0    12.011   -4.125839   -2.187358    5.026294
  54 H     1.0000    0     1.008   -6.806038   -2.158634    8.106358
  55 C     4.0000    0    12.011    3.173039   -5.729272   -3.453852
  56 C     4.0000    0    12.011   -4.022093    0.735481    4.755874
  57 O     6.0000    0    15.999    4.524004   -6.718921   -5.033664
  58 O     6.0000    0    15.999   -5.245313    2.083423    6.166176
  59 C     4.0000    0    12.011    0.913494  -14.119089    0.407992
  60 C     4.0000    0    12.011    1.862703  -15.261617    2.579476
  61 C     4.0000    0    12.011    2.179799  -17.866794    2.638058
  62 C     4.0000    0    12.011    1.550520  -19.319615    0.541973
  63 C     4.0000    0    12.011    0.615862  -18.168583   -1.625920
  64 C     4.0000    0    12.011    0.304246  -15.562840   -1.705100
  65 H     1.0000    0     1.008    2.380299  -14.110018    4.218058
  66 H     1.0000    0     1.008    1.799964  -21.370724    0.595831
  67 H     1.0000    0     1.008    2.933422  -18.773106    4.335977
  68 H     1.0000    0     1.008   -0.415551  -14.648023   -3.415113
  69 H     1.0000    0     1.008    0.132092  -19.312434   -3.278486
  70 C     4.0000    0    12.011   -7.342153   -7.182093    8.843540
  71 C     4.0000    0    12.011   -9.239816   -8.809336    8.023588
  72 C     4.0000    0    12.011   -7.044332   -6.658828   11.404308
  73 C     4.0000    0    12.011  -10.831532   -9.932590    9.783112
  74 C     4.0000    0    12.011  -10.527097   -9.434269   12.344447
  75 C     4.0000    0    12.011   -8.636993   -7.799656   13.152494
  76 H     1.0000    0     1.008   -5.564110   -5.357374   12.033020
  77 H     1.0000    0     1.008   -9.490961   -9.178022    6.003660
  78 H     1.0000    0     1.008  -12.330841  -11.205887    9.148731
  79 H     1.0000    0     1.008   -8.405502   -7.400545   15.167509
  80 H     1.0000    0     1.008  -11.783009  -10.323385   13.724514
  81 C     4.0000    0    12.011    5.578472    2.015393    2.475163
  82 O     6.0000    0    15.999    7.216675    1.755934    4.098438
  83 H     1.0000    0     1.008    8.866973    6.278615    2.384645
  84 H     1.0000    0     1.008    3.190047  -10.925263   -2.859534
  85 H     1.0000    0     1.008   -4.461265    5.742500   -8.420431
  86 C     4.0000    0    12.011   -1.084325   -7.450434    1.856278
  87 C     4.0000    0    12.011   -2.683600   -6.057328    3.591236
  88 C     4.0000    0    12.011   -2.485746  -11.366136    3.851640
  89 C     4.0000    0    12.011   -3.988645  -10.066004    5.463765
  90 H     1.0000    0     1.008   -2.425652  -13.432929    3.924961
  91 H     1.0000    0     1.008   -5.097725  -11.072283    6.891264

--------------------------------
INTERNAL COORDINATES (ANGSTROEM)
--------------------------------
 N      0   0   0     0.000000000000     0.00000000     0.00000000
 O      1   0   0     2.621154953451     0.00000000     0.00000000
 N      1   2   0     2.631681000805   110.98200201     0.00000000
 N      2   1   3     4.054480923620   120.32582121   337.61369052
 N      4   2   1     2.672514452721    69.93965655   101.94462120
 O      4   2   1     2.521252795735    57.48680297   319.92149461
 O      5   4   2     2.521972208412   116.11968504   323.08379651
 O      3   1   2     2.619752295542   111.02159105     0.16532819
 C      1   2   3     1.328410155035    65.36055086   183.26091141
 C      9   1   2     1.415903640789   121.64377442   176.76014418
 C     10   9   1     1.383664879947   118.68567579   359.19749053
 C     11  10   9     1.415898827600   120.75773842     0.52900047
 C      1   2   3     1.362307237740   174.01265011   324.04614826
 C      2   1   3     1.287086046075    65.20179849   179.51313682
 O     14   2   1     1.228146412282   124.34407848   177.81149967
 C     12  11  10     1.433883970201   126.27177369   179.41136544
 C      3   1   2     1.362167717280    64.23657532   183.00879349
 C     17   3   1     1.398567227558   123.72150703   179.20312129
 C     16  12  11     1.358935561386   121.71143131   177.90168156
 H     19  16  12     1.094325924942   120.00223834   181.35037911
 H     16  12  11     1.094386718669   118.28716900   357.40175624
 C     18  17   3     1.415903234688   115.94805017     0.59224442
 C     22  18  17     1.383664355977   120.74644337   358.09155164
 C      3   1   2     1.328355697846   176.09605853   336.17935180
 C     22  18  17     1.461032511616   120.13073026   177.99419593
 C     25  22  18     1.392433930210   120.03022849   300.87696521
 C     26  25  22     1.389126448528   119.65764173   180.87110482
 C     27  26  25     1.389826356060   120.16128219     0.00000000
 C     28  27  26     1.389617490535   120.02509647     0.31889725
 C     29  28  27     1.389217625140   120.15662339   359.90282040
 H     26  25  22     1.094579750407   119.99970648     0.14723926
 H     27  26  25     1.093579004919   119.84699527   179.79767134
 H     28  27  26     1.093315375361   119.98030187   180.11263620
 H     29  28  27     1.093573335447   120.01232072   179.72435929
 C     11  10   9     1.461057274716   119.08280268   181.43352712
 C     35  11  10     1.392447758446   120.02811385   120.11082885
 C     35  11  10     1.392297942252   119.61569193   301.55458715
 C     37  35  11     1.389251237178   119.66167644   179.31129630
 C     36  35  11     1.389176119144   119.65400392   180.89649317
 C     38  37  35     1.389746728724   120.15162733   359.57400418
 H     37  35  11     1.094535234700   119.97254627   359.24386990
 H     40  38  37     1.093361669348   119.98868790   180.12597442
 H     38  37  35     1.093589196179   119.84201330   179.77631869
 H     39  36  35     1.093542198546   119.84159004   179.83810288
 H     36  35  11     1.094603435039   120.00783392     0.11440101
 H     30  29  28     1.094510730875   120.36023549   179.67619569
 C      4   2   1     1.356838575513   111.23728983   280.87182613
 C     47   4   2     1.408086197646   124.90860498   214.89435101
 C     48  47   4     1.373542988042   118.94169985   359.94717827
 C     49  48  47     1.415923567852   119.29656109     1.67706309
 C      5   4   2     2.470071509086    91.79693168   143.21590904
 C     51   5   4     1.415931537893    90.16513654   181.18775451
 C     52  51   5     1.373393938388   119.29281963   358.35291901
 C      5   4   2     1.356896948924   178.44558672   150.41864557
 H     53  52  51     1.096574147060   122.34161608   180.88411827
 C      6   4   2     1.277385082894    71.59994993   220.65761535
 C      7   5   4     1.277129578391    71.58149666   180.69132398
 O     56   6   4     1.218293765887   130.28434407   179.56997693
 O     57   7   5     1.218506409503   130.27340655   179.45506796
 C     49  48  47     1.460795704402   119.49074230   182.01707503
 C     60  49  48     1.392220262746   120.02111669   118.80483907
 C     61  60  49     1.389120513131   119.53681255   181.39034940
 C     62  61  60     1.390060099420   120.14141917   359.94362267
 C     63  62  61     1.389856039308   120.09964106     0.38870300
 C     64  63  62     1.389356984364   120.13755707   359.92298862
 H     61  60  49     1.094646965921   120.15321079     0.51586030
 H     63  62  61     1.093768444416   119.94281172   180.09345777
 H     62  61  60     1.093782359521   119.83688761   179.70406742
 H     65  64  63     1.094660509016   120.34050683   179.45567061
 H     64  63  62     1.093926112679   120.04160264   179.62631919
 C     52  51   5     1.460737039990   121.19771581   177.99324278
 C     71  52  51     1.392185354039   120.01646280   299.15350319
 C     71  52  51     1.392051500484   119.41848969   121.07613132
 C     72  71  52     1.389146450163   119.54592910   181.40210175
 C     74  72  71     1.390179866061   120.13690450   359.94841954
 C     73  71  52     1.389451524883   119.53994535   178.91150253
 H     73  71  52     1.094785764431   120.12996443   358.89434247
 H     72  71  52     1.094656854909   120.14214311     0.52564782
 H     74  72  71     1.093702194384   119.85035954   179.72750052
 H     76  73  71     1.093895506893   119.81440704   179.74933122
 H     75  74  72     1.093801398792   119.93129506   180.05018033
 C      8   3   1     1.287077794852    65.25069386   180.59993200
 O     82   8   3     1.228107446439   124.33027531   180.66453892
 H     23  22  18     1.093925815583   122.01784131   180.89467237
 H     48  47   4     1.096549223701   118.71775000   180.77149491
 H     10   9   1     1.093914663034   119.31144459   179.91595676
 C      4   2   1     1.394623827417   122.37993415   140.30958605
 C      5   4   2     1.394671731986    64.00276732   143.54135808
 C     50  49  48     1.429954667114   122.67782893   177.46233601
 C     89  50  49     1.354114360015   121.02771751   179.70072289
 H     89  50  49     1.094849930356   118.81769700   359.00731143
 H     90  89  50     1.094822825849   120.15969766   181.48827664

---------------------------
INTERNAL COORDINATES (A.U.)
---------------------------
 N      0   0   0     0.000000000000     0.00000000     0.00000000
 O      1   0   0     4.953265016593     0.00000000     0.00000000
 N      1   2   0     4.973156363366   110.98200201     0.00000000
 N      2   1   3     7.661858560850   120.32582121   337.61369052
 N      4   2   1     5.050320404588    69.93965655   101.94462120
 O      4   2   1     4.764477298322    57.48680297   319.92149461
 O      5   4   2     4.765836791258   116.11968504   323.08379651
 O      3   1   2     4.950614377287   111.02159105     0.16532819
 C      1   2   3     2.510331386536    65.36055086   183.26091141
 C      9   1   2     2.675670113114   121.64377442   176.76014418
 C     10   9   1     2.614747684226   118.68567579   359.19749053
 C     11  10   9     2.675661017505   120.75773842     0.52900047
 C      1   2   3     2.574387589588   174.01265011   324.04614826
 C      2   1   3     2.432240137873    65.20179849   179.51313682
 O     14   2   1     2.320860371570   124.34407848   177.81149967
 C     12  11  10     2.709648011500   126.27177369   179.41136544
 C      3   1   2     2.574123934128    64.23657532   183.00879349
 C     17   3   1     2.642909039963   123.72150703   179.20312129
 C     16  12  11     2.568016044666   121.71143131   177.90168156
 H     19  16  12     2.067976299390   120.00223834   181.35037911
 H     16  12  11     2.068091182886   118.28716900   357.40175624
 C     18  17   3     2.675669345694   115.94805017     0.59224442
 C     22  18  17     2.614746694064   120.74644337   358.09155164
 C      3   1   2     2.510228477363   176.09605853   336.17935180
 C     22  18  17     2.760951319710   120.13073026   177.99419593
 C     25  22  18     2.631318787676   120.03022849   300.87696521
 C     26  25  22     2.625068553105   119.65764173   180.87110482
 C     27  26  25     2.626391186660   120.16128219     0.00000000
 C     28  27  26     2.625996488018   120.02509647     0.31889725
 C     29  28  27     2.625240851931   120.15662339   359.90282040
 H     26  25  22     2.068455960004   119.99970648     0.14723926
 H     27  26  25     2.066564825103   119.84699527   179.79767134
 H     28  27  26     2.066066637437   119.98030187   180.11263620
 H     29  28  27     2.066554111353   120.01232072   179.72435929
 C     11  10   9     2.760998115186   119.08280268   181.43352712
 C     35  11  10     2.631344919255   120.02811385   120.11082885
 C     35  11  10     2.631061807679   119.61569193   301.55458715
 C     37  35  11     2.625304369477   119.66167644   179.31129630
 C     36  35  11     2.625162416966   119.65400392   180.89649317
 C     38  37  35     2.626240712802   120.15162733   359.57400418
 H     37  35  11     2.068371837510   119.97254627   359.24386990
 H     40  38  37     2.066154120395   119.98868790   180.12597442
 H     38  37  35     2.066584083794   119.84201330   179.77631869
 H     39  36  35     2.066495271137   119.84159004   179.83810288
 H     36  35  11     2.068500717474   120.00783392     0.11440101
 H     30  29  28     2.068325531991   120.36023549   179.67619569
 C      4   2   1     2.564053315659   111.23728983   280.87182613
 C     47   4   2     2.660897286505   124.90860498   214.89435101
 C     48  47   4     2.595620080568   118.94169985   359.94717827
 C     49  48  47     2.675707769806   119.29656109     1.67706309
 C      5   4   2     4.667758683375    91.79693168   143.21590904
 C     51   5   4     2.675722831000    90.16513654   181.18775451
 C     52  51   5     2.595338417540   119.29281963   358.35291901
 C      5   4   2     2.564163625420   178.44558672   150.41864557
 H     53  52  51     2.072224823481   122.34161608   180.88411827
 C      6   4   2     2.413907974226    71.59994993   220.65761535
 C      7   5   4     2.413425140688    71.58149666   180.69132398
 O     56   6   4     2.302241568191   130.28434407   179.56997693
 O     57   7   5     2.302643406388   130.27340655   179.45506796
 C     49  48  47     2.760503818929   119.49074230   182.01707503
 C     60  49  48     2.630915014685   120.02111669   118.80483907
 C     61  60  49     2.625057336829   119.53681255   181.39034940
 C     62  61  60     2.626832897595   120.14141917   359.94362267
 C     63  62  61     2.626447279868   120.09964106     0.38870300
 C     64  63  62     2.625504202698   120.13755707   359.92298862
 H     61  60  49     2.068582978918   120.15321079     0.51586030
 H     63  62  61     2.066922813871   119.94281172   180.09345777
 H     62  61  60     2.066949109609   119.83688761   179.70406742
 H     65  64  63     2.068608571660   120.34050683   179.45567061
 H     64  63  62     2.067220763708   120.04160264   179.62631919
 C     52  51   5     2.760392959257   121.19771581   177.99324278
 C     71  52  51     2.630849046789   120.01646280   299.15350319
 C     71  52  51     2.630596100229   119.41848969   121.07613132
 C     72  71  52     2.625106350717   119.54592910   181.40210175
 C     74  72  71     2.627059223746   120.13690450   359.94841954
 C     73  71  52     2.625682858388   119.53994535   178.91150253
 H     73  71  52     2.068845270090   120.12996443   358.89434247
 H     72  71  52     2.068601666398   120.14214311     0.52564782
 H     74  72  71     2.066797619454   119.85035954   179.72750052
 H     76  73  71     2.067162927154   119.81440704   179.74933122
 H     75  74  72     2.066985088617   119.93129506   180.05018033
 C      8   3   1     2.432224545321    65.25069386   180.59993200
 O     82   8   3     2.320786736800   124.33027531   180.66453892
 H     23  22  18     2.067220202279   122.01784131   180.89467237
 H     48  47   4     2.072177725159   118.71775000   180.77149491
 H     10   9   1     2.067199127014   119.31144459   179.91595676
 C      4   2   1     2.635457093660   122.37993415   140.30958605
 C      5   4   2     2.635547620175    64.00276732   143.54135808
 C     50  49  48     2.702222704767   122.67782893   177.46233601
 C     89  50  49     2.558905294439   121.02771751   179.70072289
 H     89  50  49     2.068966526115   118.81769700   359.00731143
 H     90  89  50     2.068915306020   120.15969766   181.48827664

----------------------------
SLATER BASIS SET DIM= 284
----------------------------
  0 N     2 shells
 l=0 nsto= 1
    2       1.950000000000        1.000000000000
 l=1 nsto= 1
    2       1.950000000000        1.000000000000
  1 O     2 shells
 l=0 nsto= 1
    2       2.275000000000        1.000000000000
 l=1 nsto= 1
    2       2.275000000000        1.000000000000
  2 N     2 shells
 l=0 nsto= 1
    2       1.950000000000        1.000000000000
 l=1 nsto= 1
    2       1.950000000000        1.000000000000
  3 N     2 shells
 l=0 nsto= 1
    2       1.950000000000        1.000000000000
 l=1 nsto= 1
    2       1.950000000000        1.000000000000
  4 N     2 shells
 l=0 nsto= 1
    2       1.950000000000        1.000000000000
 l=1 nsto= 1
    2       1.950000000000        1.000000000000
  5 O     2 shells
 l=0 nsto= 1
    2       2.275000000000        1.000000000000
 l=1 nsto= 1
    2       2.275000000000        1.000000000000
  6 O     2 shells
 l=0 nsto= 1
    2       2.275000000000        1.000000000000
 l=1 nsto= 1
    2       2.275000000000        1.000000000000
  7 O     2 shells
 l=0 nsto= 1
    2       2.275000000000        1.000000000000
 l=1 nsto= 1
    2       2.275000000000        1.000000000000
  8 C     2 shells
 l=0 nsto= 1
    2       1.625000000000        1.000000000000
 l=1 nsto= 1
    2       1.625000000000        1.000000000000
  9 C     2 shells
 l=0 nsto= 1
    2       1.625000000000        1.000000000000
 l=1 nsto= 1
    2       1.625000000000        1.000000000000
 10 C     2 shells
 l=0 nsto= 1
    2       1.625000000000        1.000000000000
 l=1 nsto= 1
    2       1.625000000000        1.000000000000
 11 C     2 shells
 l=0 nsto= 1
    2       1.625000000000        1.000000000000
 l=1 nsto= 1
    2       1.625000000000        1.000000000000
 12 C     2 shells
 l=0 nsto= 1
    2       1.625000000000        1.000000000000
 l=1 nsto= 1
    2       1.625000000000        1.000000000000
 13 C     2 shells
 l=0 nsto= 1
    2       1.625000000000        1.000000000000
 l=1 nsto= 1
    2       1.625000000000        1.000000000000
 14 O     2 shells
 l=0 nsto= 1
    2       2.275000000000        1.000000000000
 l=1 nsto= 1
    2       2.275000000000        1.000000000000
 15 C     2 shells
 l=0 nsto= 1
    2       1.625000000000        1.000000000000
 l=1 nsto= 1
    2       1.625000000000        1.000000000000
 16 C     2 shells
 l=0 nsto= 1
    2       1.625000000000        1.000000000000
 l=1 nsto= 1
    2       1.625000000000        1.000000000000
 17 C     2 shells
 l=0 nsto= 1
    2       1.625000000000        1.000000000000
 l=1 nsto= 1
    2       1.625000000000        1.000000000000
 18 C     2 shells
 l=0 nsto= 1
    2       1.625000000000        1.000000000000
 l=1 nsto= 1
    2       1.625000000000        1.000000000000
 19 H     1 shells
 l=0 nsto= 1
    1       1.200000000000        1.000000000000
 20 H     1 shells
 l=0 nsto= 1
    1       1.200000000000        1.000000000000
 21 C     2 shells
 l=0 nsto= 1
    2       1.625000000000        1.000000000000
 l=1 nsto= 1
    2       1.625000000000        1.000000000000
 22 C     2 shells
 l=0 nsto= 1
    2       1.625000000000        1.000000000000
 l=1 nsto= 1
    2       1.625000000000        1.000000000000
 23 C     2 shells
 l=0 nsto= 1
    2       1.625000000000        1.000000000000
 l=1 nsto= 1
    2       1.625000000000        1.000000000000
 24 C     2 shells
 l=0 nsto= 1
    2       1.625000000000        1.000000000000
 l=1 nsto= 1
    2       1.625000000000        1.000000000000
 25 C     2 shells
 l=0 nsto= 1
    2       1.625000000000        1.000000000000
 l=1 nsto= 1
    2       1.625000000000        1.000000000000
 26 C     2 shells
 l=0 nsto= 1
    2       1.625000000000        1.000000000000
 l=1 nsto= 1
    2       1.625000000000        1.000000000000
 27 C     2 shells
 l=0 nsto= 1
    2       1.625000000000        1.000000000000
 l=1 nsto= 1
    2       1.625000000000        1.000000000000
 28 C     2 shells
 l=0 nsto= 1
    2       1.625000000000        1.000000000000
 l=1 nsto= 1
    2       1.625000000000        1.000000000000
 29 C     2 shells
 l=0 nsto= 1
    2       1.625000000000        1.000000000000
 l=1 nsto= 1
    2       1.625000000000        1.000000000000
 30 H     1 shells
 l=0 nsto= 1
    1       1.200000000000        1.000000000000
 31 H     1 shells
 l=0 nsto= 1
    1       1.200000000000        1.000000000000
 32 H     1 shells
 l=0 nsto= 1
    1       1.200000000000        1.000000000000
 33 H     1 shells
 l=0 nsto= 1
    1       1.200000000000        1.000000000000
 34 C     2 shells
 l=0 nsto= 1
    2       1.625000000000        1.000000000000
 l=1 nsto= 1
    2       1.625000000000        1.000000000000
 35 C     2 shells
 l=0 nsto= 1
    2       1.625000000000        1.000000000000
 l=1 nsto= 1
    2       1.625000000000        1.000000000000
 36 C     2 shells
 l=0 nsto= 1
    2       1.625000000000        1.000000000000
 l=1 nsto= 1
    2       1.625000000000        1.000000000000
 37 C     2 shells
 l=0 nsto= 1
    2       1.625000000000        1.000000000000
 l=1 nsto= 1
    2       1.625000000000        1.000000000000
 38 C     2 shells
 l=0 nsto= 1
    2       1.625000000000        1.000000000000
 l=1 nsto= 1
    2       1.625000000000        1.000000000000
 39 C     2 shells
 l=0 nsto= 1
    2       1.625000000000        1.000000000000
 l=1 nsto= 1
    2       1.625000000000        1.000000000000
 40 H     1 shells
 l=0 nsto= 1
    1       1.200000000000        1.000000000000
 41 H     1 shells
 l=0 nsto= 1
    1       1.200000000000        1.000000000000
 42 H     1 shells
 l=0 nsto= 1
    1       1.200000000000        1.000000000000
 43 H     1 shells
 l=0 nsto= 1
    1       1.200000000000        1.000000000000
 44 H     1 shells
 l=0 nsto= 1
    1       1.200000000000        1.000000000000
 45 H     1 shells
 l=0 nsto= 1
    1       1.200000000000        1.000000000000
 46 C     2 shells
 l=0 nsto= 1
    2       1.625000000000        1.000000000000
 l=1 nsto= 1
    2       1.625000000000        1.000000000000
 47 C     2 shells
 l=0 nsto= 1
    2       1.625000000000        1.000000000000
 l=1 nsto= 1
    2       1.625000000000        1.000000000000
 48 C     2 shells
 l=0 nsto= 1
    2       1.625000000000        1.000000000000
 l=1 nsto= 1
    2       1.625000000000        1.000000000000
 49 C     2 shells
 l=0 nsto= 1
    2       1.625000000000        1.000000000000
 l=1 nsto= 1
    2       1.625000000000        1.000000000000
 50 C     2 shells
 l=0 nsto= 1
    2       1.625000000000        1.000000000000
 l=1 nsto= 1
    2       1.625000000000        1.000000000000
 51 C     2 shells
 l=0 nsto= 1
    2       1.625000000000        1.000000000000
 l=1 nsto= 1
    2       1.625000000000        1.000000000000
 52 C     2 shells
 l=0 nsto= 1
    2       1.625000000000        1.000000000000
 l=1 nsto= 1
    2       1.625000000000        1.000000000000
 53 C     2 shells
 l=0 nsto= 1
    2       1.625000000000        1.000000000000
 l=1 nsto= 1
    2       1.625000000000        1.000000000000
 54 H     1 shells
 l=0 nsto= 1
    1       1.200000000000        1.000000000000
 55 C     2 shells
 l=0 nsto= 1
    2       1.625000000000        1.000000000000
 l=1 nsto= 1
    2       1.625000000000        1.000000000000
 56 C     2 shells
 l=0 nsto= 1
    2       1.625000000000        1.000000000000
 l=1 nsto= 1
    2       1.625000000000        1.000000000000
 57 O     2 shells
 l=0 nsto= 1
    2       2.275000000000        1.000000000000
 l=1 nsto= 1
    2       2.275000000000        1.000000000000
 58 O     2 shells
 l=0 nsto= 1
    2       2.275000000000        1.000000000000
 l=1 nsto= 1
    2       2.275000000000        1.000000000000
 59 C     2 shells
 l=0 nsto= 1
    2       1.625000000000        1.000000000000
 l=1 nsto= 1
    2       1.625000000000        1.000000000000
 60 C     2 shells
 l=0 nsto= 1
    2       1.625000000000        1.000000000000
 l=1 nsto= 1
    2       1.625000000000        1.000000000000
 61 C     2 shells
 l=0 nsto= 1
    2       1.625000000000        1.000000000000
 l=1 nsto= 1
    2       1.625000000000        1.000000000000
 62 C     2 shells
 l=0 nsto= 1
    2       1.625000000000        1.000000000000
 l=1 nsto= 1
    2       1.625000000000        1.000000000000
 63 C     2 shells
 l=0 nsto= 1
    2       1.625000000000        1.000000000000
 l=1 nsto= 1
    2       1.625000000000        1.000000000000
 64 C     2 shells
 l=0 nsto= 1
    2       1.625000000000        1.000000000000
 l=1 nsto= 1
    2       1.625000000000        1.000000000000
 65 H     1 shells
 l=0 nsto= 1
    1       1.200000000000        1.000000000000
 66 H     1 shells
 l=0 nsto= 1
    1       1.200000000000        1.000000000000
 67 H     1 shells
 l=0 nsto= 1
    1       1.200000000000        1.000000000000
 68 H     1 shells
 l=0 nsto= 1
    1       1.200000000000        1.000000000000
 69 H     1 shells
 l=0 nsto= 1
    1       1.200000000000        1.000000000000
 70 C     2 shells
 l=0 nsto= 1
    2       1.625000000000        1.000000000000
 l=1 nsto= 1
    2       1.625000000000        1.000000000000
 71 C     2 shells
 l=0 nsto= 1
    2       1.625000000000        1.000000000000
 l=1 nsto= 1
    2       1.625000000000        1.000000000000
 72 C     2 shells
 l=0 nsto= 1
    2       1.625000000000        1.000000000000
 l=1 nsto= 1
    2       1.625000000000        1.000000000000
 73 C     2 shells
 l=0 nsto= 1
    2       1.625000000000        1.000000000000
 l=1 nsto= 1
    2       1.625000000000        1.000000000000
 74 C     2 shells
 l=0 nsto= 1
    2       1.625000000000        1.000000000000
 l=1 nsto= 1
    2       1.625000000000        1.000000000000
 75 C     2 shells
 l=0 nsto= 1
    2       1.625000000000        1.000000000000
 l=1 nsto= 1
    2       1.625000000000        1.000000000000
 76 H     1 shells
 l=0 nsto= 1
    1       1.200000000000        1.000000000000
 77 H     1 shells
 l=0 nsto= 1
    1       1.200000000000        1.000000000000
 78 H     1 shells
 l=0 nsto= 1
    1       1.200000000000        1.000000000000
 79 H     1 shells
 l=0 nsto= 1
    1       1.200000000000        1.000000000000
 80 H     1 shells
 l=0 nsto= 1
    1       1.200000000000        1.000000000000
 81 C     2 shells
 l=0 nsto= 1
    2       1.625000000000        1.000000000000
 l=1 nsto= 1
    2       1.625000000000        1.000000000000
 82 O     2 shells
 l=0 nsto= 1
    2       2.275000000000        1.000000000000
 l=1 nsto= 1
    2       2.275000000000        1.000000000000
 83 H     1 shells
 l=0 nsto= 1
    1       1.200000000000        1.000000000000
 84 H     1 shells
 l=0 nsto= 1
    1       1.200000000000        1.000000000000
 85 H     1 shells
 l=0 nsto= 1
    1       1.200000000000        1.000000000000
 86 C     2 shells
 l=0 nsto= 1
    2       1.625000000000        1.000000000000
 l=1 nsto= 1
    2       1.625000000000        1.000000000000
 87 C     2 shells
 l=0 nsto= 1
    2       1.625000000000        1.000000000000
 l=1 nsto= 1
    2       1.625000000000        1.000000000000
 88 C     2 shells
 l=0 nsto= 1
    2       1.625000000000        1.000000000000
 l=1 nsto= 1
    2       1.625000000000        1.000000000000
 89 C     2 shells
 l=0 nsto= 1
    2       1.625000000000        1.000000000000
 l=1 nsto= 1
    2       1.625000000000        1.000000000000
 90 H     1 shells
 l=0 nsto= 1
    1       1.200000000000        1.000000000000
 91 H     1 shells
 l=0 nsto= 1
    1       1.200000000000        1.000000000000

                ****STO-3G FIT TO SLATER BASIS FOLLOWS****

---------------------------
GAUSSIAN BASIS SET DIM= 284
---------------------------
  0 N     2 shells
 l=0 ngauss= 3
          9.816256759725       -0.236929652558
          0.596089699042        0.288182110959
          0.228847487632        0.108045395385
 l=1 ngauss= 3
          3.495402084330        1.106327702312
          0.897083701020        0.704577598937
          0.304572862123        0.136201706076
  1 O     2 shells
 l=0 ngauss= 3
         13.361016145181       -0.298565485943
          0.811344312586        0.363150965147
          0.311486858165        0.136152759390
 l=1 ngauss= 3
          4.757630614782        1.626487617320
          1.221030593055        1.035847459769
          0.414557506778        0.200239393741
  2 N     2 shells
 l=0 ngauss= 3
          9.816256759725       -0.236929652558
          0.596089699042        0.288182110959
          0.228847487632        0.108045395385
 l=1 ngauss= 3
          3.495402084330        1.106327702312
          0.897083701020        0.704577598937
          0.304572862123        0.136201706076
  3 N     2 shells
 l=0 ngauss= 3
          9.816256759725       -0.236929652558
          0.596089699042        0.288182110959
          0.228847487632        0.108045395385
 l=1 ngauss= 3
          3.495402084330        1.106327702312
          0.897083701020        0.704577598937
          0.304572862123        0.136201706076
  4 N     2 shells
 l=0 ngauss= 3
          9.816256759725       -0.236929652558
          0.596089699042        0.288182110959
          0.228847487632        0.108045395385
 l=1 ngauss= 3
          3.495402084330        1.106327702312
          0.897083701020        0.704577598937
          0.304572862123        0.136201706076
  5 O     2 shells
 l=0 ngauss= 3
         13.361016145181       -0.298565485943
          0.811344312586        0.363150965147
          0.311486858165        0.136152759390
 l=1 ngauss= 3
          4.757630614782        1.626487617320
          1.221030593055        1.035847459769
          0.414557506778        0.200239393741
  6 O     2 shells
 l=0 ngauss= 3
         13.361016145181       -0.298565485943
          0.811344312586        0.363150965147
          0.311486858165        0.136152759390
 l=1 ngauss= 3
          4.757630614782        1.626487617320
          1.221030593055        1.035847459769
          0.414557506778        0.200239393741
  7 O     2 shells
 l=0 ngauss= 3
         13.361016145181       -0.298565485943
          0.811344312586        0.363150965147
          0.311486858165        0.136152759390
 l=1 ngauss= 3
          4.757630614782        1.626487617320
          1.221030593055        1.035847459769
          0.414557506778        0.200239393741
  8 C     2 shells
 l=0 ngauss= 3
          6.816844972031       -0.180238493400
          0.413951179891        0.219227559502
          0.158921866411        0.082192917065
 l=1 ngauss= 3
          2.427362558562        0.701343331654
          0.622974792375        0.446658616262
          0.211508932030        0.086343456931
  9 C     2 shells
 l=0 ngauss= 3
          6.816844972031       -0.180238493400
          0.413951179891        0.219227559502
          0.158921866411        0.082192917065
 l=1 ngauss= 3
          2.427362558562        0.701343331654
          0.622974792375        0.446658616262
          0.211508932030        0.086343456931
 10 C     2 shells
 l=0 ngauss= 3
          6.816844972031       -0.180238493400
          0.413951179891        0.219227559502
          0.158921866411        0.082192917065
 l=1 ngauss= 3
          2.427362558562        0.701343331654
          0.622974792375        0.446658616262
          0.211508932030        0.086343456931
 11 C     2 shells
 l=0 ngauss= 3
          6.816844972031       -0.180238493400
          0.413951179891        0.219227559502
          0.158921866411        0.082192917065
 l=1 ngauss= 3
          2.427362558562        0.701343331654
          0.622974792375        0.446658616262
          0.211508932030        0.086343456931
 12 C     2 shells
 l=0 ngauss= 3
          6.816844972031       -0.180238493400
          0.413951179891        0.219227559502
          0.158921866411        0.082192917065
 l=1 ngauss= 3
          2.427362558562        0.701343331654
          0.622974792375        0.446658616262
          0.211508932030        0.086343456931
 13 C     2 shells
 l=0 ngauss= 3
          6.816844972031       -0.180238493400
          0.413951179891        0.219227559502
          0.158921866411        0.082192917065
 l=1 ngauss= 3
          2.427362558562        0.701343331654
          0.622974792375        0.446658616262
          0.211508932030        0.086343456931
 14 O     2 shells
 l=0 ngauss= 3
         13.361016145181       -0.298565485943
          0.811344312586        0.363150965147
          0.311486858165        0.136152759390
 l=1 ngauss= 3
          4.757630614782        1.626487617320
          1.221030593055        1.035847459769
          0.414557506778        0.200239393741
 15 C     2 shells
 l=0 ngauss= 3
          6.816844972031       -0.180238493400
          0.413951179891        0.219227559502
          0.158921866411        0.082192917065
 l=1 ngauss= 3
          2.427362558562        0.701343331654
          0.622974792375        0.446658616262
          0.211508932030        0.086343456931
 16 C     2 shells
 l=0 ngauss= 3
          6.816844972031       -0.180238493400
          0.413951179891        0.219227559502
          0.158921866411        0.082192917065
 l=1 ngauss= 3
          2.427362558562        0.701343331654
          0.622974792375        0.446658616262
          0.211508932030        0.086343456931
 17 C     2 shells
 l=0 ngauss= 3
          6.816844972031       -0.180238493400
          0.413951179891        0.219227559502
          0.158921866411        0.082192917065
 l=1 ngauss= 3
          2.427362558562        0.701343331654
          0.622974792375        0.446658616262
          0.211508932030        0.086343456931
 18 C     2 shells
 l=0 ngauss= 3
          6.816844972031       -0.180238493400
          0.413951179891        0.219227559502
          0.158921866411        0.082192917065
 l=1 ngauss= 3
          2.427362558562        0.701343331654
          0.622974792375        0.446658616262
          0.211508932030        0.086343456931
 19 H     1 shells
 l=0 ngauss= 3
          3.207716323200        0.263641997416
          0.584301245760        0.254981580309
          0.158135991840        0.079465923249
 20 H     1 shells
 l=0 ngauss= 3
          3.207716323200        0.263641997416
          0.584301245760        0.254981580309
          0.158135991840        0.079465923249
 21 C     2 shells
 l=0 ngauss= 3
          6.816844972031       -0.180238493400
          0.413951179891        0.219227559502
          0.158921866411        0.082192917065
 l=1 ngauss= 3
          2.427362558562        0.701343331654
          0.622974792375        0.446658616262
          0.211508932030        0.086343456931
 22 C     2 shells
 l=0 ngauss= 3
          6.816844972031       -0.180238493400
          0.413951179891        0.219227559502
          0.158921866411        0.082192917065
 l=1 ngauss= 3
          2.427362558562        0.701343331654
          0.622974792375        0.446658616262
          0.211508932030        0.086343456931
 23 C     2 shells
 l=0 ngauss= 3
          6.816844972031       -0.180238493400
          0.413951179891        0.219227559502
          0.158921866411        0.082192917065
 l=1 ngauss= 3
          2.427362558562        0.701343331654
          0.622974792375        0.446658616262
          0.211508932030        0.086343456931
 24 C     2 shells
 l=0 ngauss= 3
          6.816844972031       -0.180238493400
          0.413951179891        0.219227559502
          0.158921866411        0.082192917065
 l=1 ngauss= 3
          2.427362558562        0.701343331654
          0.622974792375        0.446658616262
          0.211508932030        0.086343456931
 25 C     2 shells
 l=0 ngauss= 3
          6.816844972031       -0.180238493400
          0.413951179891        0.219227559502
          0.158921866411        0.082192917065
 l=1 ngauss= 3
          2.427362558562        0.701343331654
          0.622974792375        0.446658616262
          0.211508932030        0.086343456931
 26 C     2 shells
 l=0 ngauss= 3
          6.816844972031       -0.180238493400
          0.413951179891        0.219227559502
          0.158921866411        0.082192917065
 l=1 ngauss= 3
          2.427362558562        0.701343331654
          0.622974792375        0.446658616262
          0.211508932030        0.086343456931
 27 C     2 shells
 l=0 ngauss= 3
          6.816844972031       -0.180238493400
          0.413951179891        0.219227559502
          0.158921866411        0.082192917065
 l=1 ngauss= 3
          2.427362558562        0.701343331654
          0.622974792375        0.446658616262
          0.211508932030        0.086343456931
 28 C     2 shells
 l=0 ngauss= 3
          6.816844972031       -0.180238493400
          0.413951179891        0.219227559502
          0.158921866411        0.082192917065
 l=1 ngauss= 3
          2.427362558562        0.701343331654
          0.622974792375        0.446658616262
          0.211508932030        0.086343456931
 29 C     2 shells
 l=0 ngauss= 3
          6.816844972031       -0.180238493400
          0.413951179891        0.219227559502
          0.158921866411        0.082192917065
 l=1 ngauss= 3
          2.427362558562        0.701343331654
          0.622974792375        0.446658616262
          0.211508932030        0.086343456931
 30 H     1 shells
 l=0 ngauss= 3
          3.207716323200        0.263641997416
          0.584301245760        0.254981580309
          0.158135991840        0.079465923249
 31 H     1 shells
 l=0 ngauss= 3
          3.207716323200        0.263641997416
          0.584301245760        0.254981580309
          0.158135991840        0.079465923249
 32 H     1 shells
 l=0 ngauss= 3
          3.207716323200        0.263641997416
          0.584301245760        0.254981580309
          0.158135991840        0.079465923249
 33 H     1 shells
 l=0 ngauss= 3
          3.207716323200        0.263641997416
          0.584301245760        0.254981580309
          0.158135991840        0.079465923249
 34 C     2 shells
 l=0 ngauss= 3
          6.816844972031       -0.180238493400
          0.413951179891        0.219227559502
          0.158921866411        0.082192917065
 l=1 ngauss= 3
          2.427362558562        0.701343331654
          0.622974792375        0.446658616262
          0.211508932030        0.086343456931
 35 C     2 shells
 l=0 ngauss= 3
          6.816844972031       -0.180238493400
          0.413951179891        0.219227559502
          0.158921866411        0.082192917065
 l=1 ngauss= 3
          2.427362558562        0.701343331654
          0.622974792375        0.446658616262
          0.211508932030        0.086343456931
 36 C     2 shells
 l=0 ngauss= 3
          6.816844972031       -0.180238493400
          0.413951179891        0.219227559502
          0.158921866411        0.082192917065
 l=1 ngauss= 3
          2.427362558562        0.701343331654
          0.622974792375        0.446658616262
          0.211508932030        0.086343456931
 37 C     2 shells
 l=0 ngauss= 3
          6.816844972031       -0.180238493400
          0.413951179891        0.219227559502
          0.158921866411        0.082192917065
 l=1 ngauss= 3
          2.427362558562        0.701343331654
          0.622974792375        0.446658616262
          0.211508932030        0.086343456931
 38 C     2 shells
 l=0 ngauss= 3
          6.816844972031       -0.180238493400
          0.413951179891        0.219227559502
          0.158921866411        0.082192917065
 l=1 ngauss= 3
          2.427362558562        0.701343331654
          0.622974792375        0.446658616262
          0.211508932030        0.086343456931
 39 C     2 shells
 l=0 ngauss= 3
          6.816844972031       -0.180238493400
          0.413951179891        0.219227559502
          0.158921866411        0.082192917065
 l=1 ngauss= 3
          2.427362558562        0.701343331654
          0.622974792375        0.446658616262
          0.211508932030        0.086343456931
 40 H     1 shells
 l=0 ngauss= 3
          3.207716323200        0.263641997416
          0.584301245760        0.254981580309
          0.158135991840        0.079465923249
 41 H     1 shells
 l=0 ngauss= 3
          3.207716323200        0.263641997416
          0.584301245760        0.254981580309
          0.158135991840        0.079465923249
 42 H     1 shells
 l=0 ngauss= 3
          3.207716323200        0.263641997416
          0.584301245760        0.254981580309
          0.158135991840        0.079465923249
 43 H     1 shells
 l=0 ngauss= 3
          3.207716323200        0.263641997416
          0.584301245760        0.254981580309
          0.158135991840        0.079465923249
 44 H     1 shells
 l=0 ngauss= 3
          3.207716323200        0.263641997416
          0.584301245760        0.254981580309
          0.158135991840        0.079465923249
 45 H     1 shells
 l=0 ngauss= 3
          3.207716323200        0.263641997416
          0.584301245760        0.254981580309
          0.158135991840        0.079465923249
 46 C     2 shells
 l=0 ngauss= 3
          6.816844972031       -0.180238493400
          0.413951179891        0.219227559502
          0.158921866411        0.082192917065
 l=1 ngauss= 3
          2.427362558562        0.701343331654
          0.622974792375        0.446658616262
          0.211508932030        0.086343456931
 47 C     2 shells
 l=0 ngauss= 3
          6.816844972031       -0.180238493400
          0.413951179891        0.219227559502
          0.158921866411        0.082192917065
 l=1 ngauss= 3
          2.427362558562        0.701343331654
          0.622974792375        0.446658616262
          0.211508932030        0.086343456931
 48 C     2 shells
 l=0 ngauss= 3
          6.816844972031       -0.180238493400
          0.413951179891        0.219227559502
          0.158921866411        0.082192917065
 l=1 ngauss= 3
          2.427362558562        0.701343331654
          0.622974792375        0.446658616262
          0.211508932030        0.086343456931
 49 C     2 shells
 l=0 ngauss= 3
          6.816844972031       -0.180238493400
          0.413951179891        0.219227559502
          0.158921866411        0.082192917065
 l=1 ngauss= 3
          2.427362558562        0.701343331654
          0.622974792375        0.446658616262
          0.211508932030        0.086343456931
 50 C     2 shells
 l=0 ngauss= 3
          6.816844972031       -0.180238493400
          0.413951179891        0.219227559502
          0.158921866411        0.082192917065
 l=1 ngauss= 3
          2.427362558562        0.701343331654
          0.622974792375        0.446658616262
          0.211508932030        0.086343456931
 51 C     2 shells
 l=0 ngauss= 3
          6.816844972031       -0.180238493400
          0.413951179891        0.219227559502
          0.158921866411        0.082192917065
 l=1 ngauss= 3
          2.427362558562        0.701343331654
          0.622974792375        0.446658616262
          0.211508932030        0.086343456931
 52 C     2 shells
 l=0 ngauss= 3
          6.816844972031       -0.180238493400
          0.413951179891        0.219227559502
          0.158921866411        0.082192917065
 l=1 ngauss= 3
          2.427362558562        0.701343331654
          0.622974792375        0.446658616262
          0.211508932030        0.086343456931
 53 C     2 shells
 l=0 ngauss= 3
          6.816844972031       -0.180238493400
          0.413951179891        0.219227559502
          0.158921866411        0.082192917065
 l=1 ngauss= 3
          2.427362558562        0.701343331654
          0.622974792375        0.446658616262
          0.211508932030        0.086343456931
 54 H     1 shells
 l=0 ngauss= 3
          3.207716323200        0.263641997416
          0.584301245760        0.254981580309
          0.158135991840        0.079465923249
 55 C     2 shells
 l=0 ngauss= 3
          6.816844972031       -0.180238493400
          0.413951179891        0.219227559502
          0.158921866411        0.082192917065
 l=1 ngauss= 3
          2.427362558562        0.701343331654
          0.622974792375        0.446658616262
          0.211508932030        0.086343456931
 56 C     2 shells
 l=0 ngauss= 3
          6.816844972031       -0.180238493400
          0.413951179891        0.219227559502
          0.158921866411        0.082192917065
 l=1 ngauss= 3
          2.427362558562        0.701343331654
          0.622974792375        0.446658616262
          0.211508932030        0.086343456931
 57 O     2 shells
 l=0 ngauss= 3
         13.361016145181       -0.298565485943
          0.811344312586        0.363150965147
          0.311486858165        0.136152759390
 l=1 ngauss= 3
          4.757630614782        1.626487617320
          1.221030593055        1.035847459769
          0.414557506778        0.200239393741
 58 O     2 shells
 l=0 ngauss= 3
         13.361016145181       -0.298565485943
          0.811344312586        0.363150965147
          0.311486858165        0.136152759390
 l=1 ngauss= 3
          4.757630614782        1.626487617320
          1.221030593055        1.035847459769
          0.414557506778        0.200239393741
 59 C     2 shells
 l=0 ngauss= 3
          6.816844972031       -0.180238493400
          0.413951179891        0.219227559502
          0.158921866411        0.082192917065
 l=1 ngauss= 3
          2.427362558562        0.701343331654
          0.622974792375        0.446658616262
          0.211508932030        0.086343456931
 60 C     2 shells
 l=0 ngauss= 3
          6.816844972031       -0.180238493400
          0.413951179891        0.219227559502
          0.158921866411        0.082192917065
 l=1 ngauss= 3
          2.427362558562        0.701343331654
          0.622974792375        0.446658616262
          0.211508932030        0.086343456931
 61 C     2 shells
 l=0 ngauss= 3
          6.816844972031       -0.180238493400
          0.413951179891        0.219227559502
          0.158921866411        0.082192917065
 l=1 ngauss= 3
          2.427362558562        0.701343331654
          0.622974792375        0.446658616262
          0.211508932030        0.086343456931
 62 C     2 shells
 l=0 ngauss= 3
          6.816844972031       -0.180238493400
          0.413951179891        0.219227559502
          0.158921866411        0.082192917065
 l=1 ngauss= 3
          2.427362558562        0.701343331654
          0.622974792375        0.446658616262
          0.211508932030        0.086343456931
 63 C     2 shells
 l=0 ngauss= 3
          6.816844972031       -0.180238493400
          0.413951179891        0.219227559502
          0.158921866411        0.082192917065
 l=1 ngauss= 3
          2.427362558562        0.701343331654
          0.622974792375        0.446658616262
          0.211508932030        0.086343456931
 64 C     2 shells
 l=0 ngauss= 3
          6.816844972031       -0.180238493400
          0.413951179891        0.219227559502
          0.158921866411        0.082192917065
 l=1 ngauss= 3
          2.427362558562        0.701343331654
          0.622974792375        0.446658616262
          0.211508932030        0.086343456931
 65 H     1 shells
 l=0 ngauss= 3
          3.207716323200        0.263641997416
          0.584301245760        0.254981580309
          0.158135991840        0.079465923249
 66 H     1 shells
 l=0 ngauss= 3
          3.207716323200        0.263641997416
          0.584301245760        0.254981580309
          0.158135991840        0.079465923249
 67 H     1 shells
 l=0 ngauss= 3
          3.207716323200        0.263641997416
          0.584301245760        0.254981580309
          0.158135991840        0.079465923249
 68 H     1 shells
 l=0 ngauss= 3
          3.207716323200        0.263641997416
          0.584301245760        0.254981580309
          0.158135991840        0.079465923249
 69 H     1 shells
 l=0 ngauss= 3
          3.207716323200        0.263641997416
          0.584301245760        0.254981580309
          0.158135991840        0.079465923249
 70 C     2 shells
 l=0 ngauss= 3
          6.816844972031       -0.180238493400
          0.413951179891        0.219227559502
          0.158921866411        0.082192917065
 l=1 ngauss= 3
          2.427362558562        0.701343331654
          0.622974792375        0.446658616262
          0.211508932030        0.086343456931
 71 C     2 shells
 l=0 ngauss= 3
          6.816844972031       -0.180238493400
          0.413951179891        0.219227559502
          0.158921866411        0.082192917065
 l=1 ngauss= 3
          2.427362558562        0.701343331654
          0.622974792375        0.446658616262
          0.211508932030        0.086343456931
 72 C     2 shells
 l=0 ngauss= 3
          6.816844972031       -0.180238493400
          0.413951179891        0.219227559502
          0.158921866411        0.082192917065
 l=1 ngauss= 3
          2.427362558562        0.701343331654
          0.622974792375        0.446658616262
          0.211508932030        0.086343456931
 73 C     2 shells
 l=0 ngauss= 3
          6.816844972031       -0.180238493400
          0.413951179891        0.219227559502
          0.158921866411        0.082192917065
 l=1 ngauss= 3
          2.427362558562        0.701343331654
          0.622974792375        0.446658616262
          0.211508932030        0.086343456931
 74 C     2 shells
 l=0 ngauss= 3
          6.816844972031       -0.180238493400
          0.413951179891        0.219227559502
          0.158921866411        0.082192917065
 l=1 ngauss= 3
          2.427362558562        0.701343331654
          0.622974792375        0.446658616262
          0.211508932030        0.086343456931
 75 C     2 shells
 l=0 ngauss= 3
          6.816844972031       -0.180238493400
          0.413951179891        0.219227559502
          0.158921866411        0.082192917065
 l=1 ngauss= 3
          2.427362558562        0.701343331654
          0.622974792375        0.446658616262
          0.211508932030        0.086343456931
 76 H     1 shells
 l=0 ngauss= 3
          3.207716323200        0.263641997416
          0.584301245760        0.254981580309
          0.158135991840        0.079465923249
 77 H     1 shells
 l=0 ngauss= 3
          3.207716323200        0.263641997416
          0.584301245760        0.254981580309
          0.158135991840        0.079465923249
 78 H     1 shells
 l=0 ngauss= 3
          3.207716323200        0.263641997416
          0.584301245760        0.254981580309
          0.158135991840        0.079465923249
 79 H     1 shells
 l=0 ngauss= 3
          3.207716323200        0.263641997416
          0.584301245760        0.254981580309
          0.158135991840        0.079465923249
 80 H     1 shells
 l=0 ngauss= 3
          3.207716323200        0.263641997416
          0.584301245760        0.254981580309
          0.158135991840        0.079465923249
 81 C     2 shells
 l=0 ngauss= 3
          6.816844972031       -0.180238493400
          0.413951179891        0.219227559502
          0.158921866411        0.082192917065
 l=1 ngauss= 3
          2.427362558562        0.701343331654
          0.622974792375        0.446658616262
          0.211508932030        0.086343456931
 82 O     2 shells
 l=0 ngauss= 3
         13.361016145181       -0.298565485943
          0.811344312586        0.363150965147
          0.311486858165        0.136152759390
 l=1 ngauss= 3
          4.757630614782        1.626487617320
          1.221030593055        1.035847459769
          0.414557506778        0.200239393741
 83 H     1 shells
 l=0 ngauss= 3
          3.207716323200        0.263641997416
          0.584301245760        0.254981580309
          0.158135991840        0.079465923249
 84 H     1 shells
 l=0 ngauss= 3
          3.207716323200        0.263641997416
          0.584301245760        0.254981580309
          0.158135991840        0.079465923249
 85 H     1 shells
 l=0 ngauss= 3
          3.207716323200        0.263641997416
          0.584301245760        0.254981580309
          0.158135991840        0.079465923249
 86 C     2 shells
 l=0 ngauss= 3
          6.816844972031       -0.180238493400
          0.413951179891        0.219227559502
          0.158921866411        0.082192917065
 l=1 ngauss= 3
          2.427362558562        0.701343331654
          0.622974792375        0.446658616262
          0.211508932030        0.086343456931
 87 C     2 shells
 l=0 ngauss= 3
          6.816844972031       -0.180238493400
          0.413951179891        0.219227559502
          0.158921866411        0.082192917065
 l=1 ngauss= 3
          2.427362558562        0.701343331654
          0.622974792375        0.446658616262
          0.211508932030        0.086343456931
 88 C     2 shells
 l=0 ngauss= 3
          6.816844972031       -0.180238493400
          0.413951179891        0.219227559502
          0.158921866411        0.082192917065
 l=1 ngauss= 3
          2.427362558562        0.701343331654
          0.622974792375        0.446658616262
          0.211508932030        0.086343456931
 89 C     2 shells
 l=0 ngauss= 3
          6.816844972031       -0.180238493400
          0.413951179891        0.219227559502
          0.158921866411        0.082192917065
 l=1 ngauss= 3
          2.427362558562        0.701343331654
          0.622974792375        0.446658616262
          0.211508932030        0.086343456931
 90 H     1 shells
 l=0 ngauss= 3
          3.207716323200        0.263641997416
          0.584301245760        0.254981580309
          0.158135991840        0.079465923249
 91 H     1 shells
 l=0 ngauss= 3
          3.207716323200        0.263641997416
          0.584301245760        0.254981580309
          0.158135991840        0.079465923249


Checking for AutoStart:
The File: ligando-30-SRM1-S.orcinp.gbw exists
Trying to determine its content:
     ... Fine, the file contains calculation information
     ... Fine, the calculation information was read
     ... Fine, the file contains a basis set
     ... Fine, the basis set was read
     ... Fine, the file contains a geometry
     ... Fine, the geometry was read
     ... Fine, the file contains a set of orbitals
     ... Fine, the orbitals can be read
     => possible old guess file was deleted
     => GBW file was renamed to GES file
     => GES file is set as startup file
     => Guess is set to MORead
     ... now leaving AutoStart

------------------------------------------------------------------------------
                           ORCA NDO INTEGRAL CALCULATION
------------------------------------------------------------------------------

--------------
NDO PARAMETERS
--------------

Gamma integral treatment              ... Mataga-Nishimoto
Nuclear repulsuion treatment          ... Direct (ZA*ZB/RAB)
Interaction factors:
s-s (sigma) =    1.0000
s-p (sigma) =    1.0000
s-d (sigma) =    1.0000
p-p (sigma) =    1.2670  p-p(pi) =    0.5850
p-d (sigma) =    1.0000  p-d(pi) =    1.0000
d-d (sigma) =    1.0000  d-d(pi) =    1.0000 d-d (delta) =    1.0000

fGamma parameter for Mataga-Nishimoto gamma integrals:    1.2000

--------------------------
Parameters for Element H :
--------------------------
 One-electron parameters (in eV)
  U(s)  =   -13.060000 Beta(s) =    12.000000 Neff(s) =     1.000000
 One-center electron repulsion parameters (in eV)
  G(s,s)=    12.850000
--------------------------
Parameters for Element C :
--------------------------
 One-electron parameters (in eV)
  U(s)  =   -50.870766 Beta(s) =    17.000000 Neff(s) =     2.000000
  U(p)  =   -41.599980 Beta(p) =    17.000000 Neff(p) =     2.000000 
 One-center electron repulsion parameters (in eV)
  G(s,s)=    11.110000
  G(s,p)=    11.110000 G(p,p)  =    11.110000
 Slater-Condon parameters (in eV)
 F2(p,p)=     4.5098 G1(s,p)=    6.8977
--------------------------
Parameters for Element N :
--------------------------
 One-electron parameters (in eV)
  U(s)  =   -69.250864 Beta(s) =    26.000000 Neff(s) =     2.000000
  U(p)  =   -58.070401 Beta(p) =    26.000000 Neff(p) =     3.000000 
 One-center electron repulsion parameters (in eV)
  G(s,s)=    12.010000
  G(s,p)=    12.010000 G(p,p)  =    12.010000
 Slater-Condon parameters (in eV)
 F2(p,p)=     6.4594 G1(s,p)=    8.9583
--------------------------
Parameters for Element O :
--------------------------
 One-electron parameters (in eV)
  U(s)  =   -90.023218 Beta(s) =    34.000000 Neff(s) =     2.000000
  U(p)  =   -76.684970 Beta(p) =    34.000000 Neff(p) =     4.000000 
 One-center electron repulsion parameters (in eV)
  G(s,s)=    13.000000
  G(s,p)=    13.000000 G(p,p)  =    13.000000
 Slater-Condon parameters (in eV)
 F2(p,p)=     6.9027 G1(s,p)=   11.8152

 Number of atoms                    ....   92
 Number of basis functions          ....  284

 Overlap integrals                  .... done
 One electron matrix                .... done
 Nuclear repulsion                  .... done
 Integral list                      .... done
 Electron-electron repulsion        .... done
ENUC WAS=  0.000000000
------------------------------------------------------------------------------
                            ORCA POINT-CHARGE CORRECTION
------------------------------------------------------------------------------

BaseName                           ... ligando-30-SRM1-S.orcinp
Point charge file                  ... ligando-30-SRM1-S.pointcharge

Reading the GBW file               ... done
Reading the one-electron matrix    ... done
Reading the point charges          ... done
Number of point charges            ... 1
Semiempirical point charge corr.   ...  S-parameter for H   =    12.850000
Reading the nuclear-repulsion      ... done
Point charge - nucleus correction    ... done
The nuclear repulsion file was updated
done
Storing the one-electron matrix    ... done

ENUC IS = 4135.753117754
-------------------------------------------------------------------------------
                                 ORCA SCF
-------------------------------------------------------------------------------

------------
SCF SETTINGS
------------
Hamiltonian:
 ZDO-Hamiltonian        Method          .... INDO


General Settings:
 Integral files         IntName         .... ligando-30-SRM1-S.orcinp
 Hartree-Fock type      HFTyp           .... RHF
 Total Charge           Charge          ....   -4
 Multiplicity           Mult            ....    1
 Number of Electrons    NEL             ....  308
 Basis Dimension        Dim             ....  284
 Nuclear Repulsion      ENuc            ....   4135.7531177538 Eh

Convergence Acceleration:
 DIIS                   CNVDIIS         .... on
   Start iteration      DIISMaxIt       ....    12
   Startup error        DIISStart       ....  0.200000
   # of expansion vecs  DIISMaxEq       ....     5
   Bias factor          DIISBfac        ....   1.050
   Max. coefficient     DIISMaxC        ....  10.000
 Newton-Raphson         CNVNR           .... off
 SOSCF                  CNVSOSCF        .... on
   Start iteration      SOSCFMaxIt      ....   150
   Startup grad/error   SOSCFStart      ....  0.003300
 Level Shifting         CNVShift        .... on
   Level shift para.    LevelShift      ....    0.2500
   Turn off err/grad.   ShiftErr        ....    0.0010
 Zerner damping         CNVZerner       .... off
 Static damping         CNVDamp         .... on
   Fraction old density DampFac         ....    0.7000
   Max. Damping (<1)    DampMax         ....    0.9800
   Min. Damping (>=0)   DampMin         ....    0.0000
   Turn off err/grad.   DampErr         ....    0.1000
 Fernandez-Rico         CNVRico         .... off

SCF Procedure:
 Maximum # iterations   MaxIter         ....   125
 SCF integral mode      SCFMode         .... Conventional
 Integral Buffer length BufferLength    .... 1048576
 Integral index format  IndFormat       ....     1
 Integral value format  ValFormat       ....     0
 Integral Storage       Thresh          ....  2.500e-11 Eh

Convergence Tolerance:
 Convergence Check Mode ConvCheckMode   .... Total+1el-Energy
 Convergence forced     ConvForced      .... 1
 Energy Change          TolE            ....  1.000e-08 Eh
 1-El. energy change                    ....  1.000e-05 Eh
 Orbital Gradient       TolG            ....  1.000e-05
 Orbital Rotation angle TolX            ....  1.000e-05
 DIIS Error             TolErr          ....  5.000e-07


Diagonalization of the overlap matrix:
Smallest eigenvalue                        ... 1.444e-01
Time for diagonalization                   ...    0.006 sec
Threshold for overlap eigenvalues          ... 1.000e-08
Number of eigenvalues below threshold      ... 0
Time for construction of square roots      ...    0.005 sec
Total time needed                          ...    0.011 sec

---------------------
INITIAL GUESS: MOREAD
---------------------
Guess MOs are being read from file: ligando-30-SRM1-S.orcinp.ges
Input Geometry matches current geometry (good)
Input basis set matches current basis set (good)
                      ------------------
                      INITIAL GUESS DONE (   0.0 sec)
                      ------------------

 InCore treatment chosen:
   Memory dedicated               ...    1024 MB
   Memory needed                  ...      0 MB
   Number of tiny    integrals    ...       0
   Number of small   integrals    ...       0
   Number of regular integrals    ...   40854

--------------
SCF ITERATIONS
--------------
ITER       Energy         Delta-E        Max-DP      RMS-DP      [F,P]     Damp
                      *** Initiating the SOSCF procedure ***
                      *** Re-Reading the Fockian *** 
                      *** Removing any level shift *** 
ITER      Energy       Delta-E        Grad      Rot      Max-DP    RMS-DP
  0     21.11089368  21.1108936828  0.000000  0.000000  0.000000  0.000000
                 **** Energy Check signals convergence ****
[...]
   150a -> 165a  :     0.046669 (c=  0.21603033)
   150a -> 168a  :     0.050317 (c= -0.22431371)
   152a -> 163a  :     0.060585 (c=  0.24613923)
   153a -> 156a  :     0.010939 (c= -0.10458914)
   153a -> 164a  :     0.040964 (c= -0.20239567)
   153a -> 167a  :     0.024229 (c=  0.15565528)

STATE 19:  E=   0.139258 au      3.789 eV    30563.5 cm**-1
   136a -> 155a  :     0.033833 (c=  0.18393814)
   136a -> 161a  :     0.170472 (c= -0.41288247)
   138a -> 154a  :     0.012361 (c= -0.11118116)
   138a -> 157a  :     0.025701 (c=  0.16031483)
   138a -> 160a  :     0.081122 (c= -0.28482010)
   138a -> 162a  :     0.106057 (c= -0.32566422)
   140a -> 159a  :     0.050368 (c= -0.22442815)
   140a -> 161a  :     0.015059 (c=  0.12271388)
   141a -> 160a  :     0.035262 (c=  0.18778049)
   141a -> 162a  :     0.019108 (c= -0.13823015)
   142a -> 154a  :     0.011066 (c=  0.10519500)
   142a -> 160a  :     0.087416 (c= -0.29566141)
   143a -> 155a  :     0.014369 (c= -0.11987140)
   143a -> 159a  :     0.061709 (c=  0.24841344)
   143a -> 161a  :     0.039702 (c= -0.19925453)
   148a -> 159a  :     0.069407 (c=  0.26345217)
   151a -> 154a  :     0.011627 (c= -0.10782861)
   151a -> 157a  :     0.040888 (c=  0.20220774)
   151a -> 160a  :     0.055508 (c=  0.23560175)

STATE 20:  E=   0.139441 au      3.794 eV    30603.7 cm**-1
   136a -> 157a  :     0.019266 (c= -0.13880184)
   136a -> 160a  :     0.119985 (c=  0.34638808)
   136a -> 162a  :     0.077013 (c=  0.27751286)
   138a -> 155a  :     0.015511 (c= -0.12454165)
   138a -> 159a  :     0.015841 (c= -0.12586209)
   138a -> 161a  :     0.209042 (c=  0.45721111)
   140a -> 160a  :     0.039232 (c= -0.19807110)
   140a -> 162a  :     0.024491 (c=  0.15649605)
   141a -> 159a  :     0.039221 (c=  0.19804224)
   141a -> 166a  :     0.011823 (c=  0.10873134)
   142a -> 155a  :     0.025167 (c=  0.15863994)
   142a -> 159a  :     0.068125 (c= -0.26100837)
   142a -> 166a  :     0.011858 (c= -0.10889339)
   143a -> 154a  :     0.042996 (c= -0.20735373)
   143a -> 160a  :     0.070691 (c=  0.26587745)
   143a -> 162a  :     0.010703 (c= -0.10345497)
   148a -> 157a  :     0.028421 (c=  0.16858582)
   148a -> 160a  :     0.012471 (c=  0.11167436)
   148a -> 162a  :     0.028011 (c= -0.16736437)
   151a -> 155a  :     0.015898 (c= -0.12608818)
   151a -> 159a  :     0.079795 (c=  0.28248083)

STATE 21:  E=   0.142905 au      3.889 eV    31363.9 cm**-1
   140a -> 154a  :     0.105478 (c= -0.32477364)
   140a -> 157a  :     0.095828 (c=  0.30956136)
   140a -> 162a  :     0.012062 (c=  0.10982653)
   140a -> 173a  :     0.024753 (c=  0.15733237)
   141a -> 155a  :     0.220793 (c=  0.46988576)
   141a -> 169a  :     0.047389 (c= -0.21769081)
   142a -> 155a  :     0.164553 (c=  0.40565125)
   142a -> 161a  :     0.016101 (c=  0.12688943)
   142a -> 166a  :     0.012436 (c=  0.11151482)
   142a -> 169a  :     0.030409 (c= -0.17438131)
   143a -> 154a  :     0.077574 (c= -0.27852197)
   143a -> 157a  :     0.055947 (c=  0.23653091)
   143a -> 162a  :     0.057993 (c=  0.24081691)
   143a -> 173a  :     0.014855 (c=  0.12188252)

STATE 22:  E=   0.142934 au      3.889 eV    31370.3 cm**-1
   140a -> 155a  :     0.201572 (c=  0.44896738)
   140a -> 169a  :     0.048871 (c= -0.22106865)
   141a -> 154a  :     0.109487 (c= -0.33088788)
   141a -> 157a  :     0.097296 (c=  0.31192266)
   141a -> 162a  :     0.015931 (c=  0.12621873)
   141a -> 173a  :     0.024730 (c=  0.15725890)
   142a -> 154a  :     0.071120 (c= -0.26668268)
   142a -> 157a  :     0.053803 (c=  0.23195567)
   142a -> 162a  :     0.053132 (c=  0.23050347)
   142a -> 173a  :     0.014081 (c=  0.11866340)
   143a -> 155a  :     0.197665 (c=  0.44459586)
   143a -> 161a  :     0.015405 (c=  0.12411565)
   143a -> 166a  :     0.010484 (c=  0.10239157)
   143a -> 169a  :     0.030428 (c= -0.17443563)

STATE 23:  E=   0.143884 au      3.915 eV    31578.8 cm**-1
   135a -> 158a  :     0.066908 (c=  0.25866535)
   137a -> 156a  :     0.064019 (c= -0.25302056)
   137a -> 158a  :     0.013404 (c= -0.11577674)
   144a -> 164a  :     0.033479 (c= -0.18297309)
   144a -> 167a  :     0.032128 (c= -0.17924334)
   145a -> 165a  :     0.063178 (c=  0.25135225)
   147a -> 163a  :     0.012671 (c=  0.11256529)
   149a -> 163a  :     0.066091 (c=  0.25708238)
   149a -> 165a  :     0.011776 (c=  0.10851756)
   149a -> 168a  :     0.059335 (c= -0.24358702)
   150a -> 164a  :     0.050734 (c= -0.22524236)
   150a -> 167a  :     0.059907 (c=  0.24475899)
   152a -> 156a  :     0.024554 (c=  0.15669687)
   152a -> 170a  :     0.102497 (c= -0.32015211)
   153a -> 163a  :     0.111764 (c= -0.33431081)
   153a -> 165a  :     0.012029 (c= -0.10967670)
   153a -> 168a  :     0.119501 (c= -0.34568920)

STATE 24:  E=   0.147572 au      4.016 eV    32388.4 cm**-1
   135a -> 156a  :     0.099866 (c=  0.31601549)
   135a -> 158a  :     0.011066 (c= -0.10519457)
   137a -> 158a  :     0.047227 (c= -0.21731844)
   149a -> 156a  :     0.038697 (c=  0.19671531)
   149a -> 164a  :     0.014288 (c= -0.11953224)
   149a -> 167a  :     0.029340 (c=  0.17128822)
   150a -> 163a  :     0.042787 (c=  0.20685013)
   150a -> 165a  :     0.010011 (c=  0.10005463)
   150a -> 168a  :     0.014579 (c= -0.12074287)
   152a -> 163a  :     0.291896 (c= -0.54027409)
   152a -> 165a  :     0.028736 (c= -0.16951668)
   152a -> 168a  :     0.154707 (c= -0.39332784)
   153a -> 156a  :     0.016739 (c=  0.12938016)
   153a -> 170a  :     0.075445 (c= -0.27467232)
   153a -> 171a  :     0.012340 (c=  0.11108546)

STATE 25:  E=   0.156694 au      4.264 eV    34390.3 cm**-1
   140a -> 159a  :     0.013536 (c= -0.11634511)
   141a -> 154a  :     0.010874 (c=  0.10427807)
   141a -> 157a  :     0.012641 (c=  0.11243094)
   141a -> 162a  :     0.010667 (c= -0.10328162)
   142a -> 157a  :     0.044658 (c= -0.21132533)
   142a -> 162a  :     0.012100 (c=  0.10999946)
   143a -> 159a  :     0.022581 (c=  0.15027105)
   148a -> 155a  :     0.143488 (c=  0.37879828)
   148a -> 166a  :     0.050676 (c=  0.22511365)
   148a -> 169a  :     0.016714 (c=  0.12928406)
   151a -> 154a  :     0.056028 (c=  0.23670158)
   151a -> 157a  :     0.414209 (c= -0.64359045)
   151a -> 162a  :     0.086429 (c= -0.29398873)
   151a -> 173a  :     0.042727 (c=  0.20670402)


----------------------
CIS-EXCITATION SPECTRA
----------------------

Center of mass = (  0.1951, -0.2244, -0.1838)
Calculating the Dipole integrals                  ... done
Transforming integrals                            ... done
Calculating the Linear Momentum integrals         ... done
Transforming integrals                            ... done
Calculating angular momentum integrals            ... done
Transforming integrals                            ... done

-----------------------------------------------------------------------------
         ABSORPTION SPECTRUM VIA TRANSITION ELECTRIC DIPOLE MOMENTS
-----------------------------------------------------------------------------
State   Energy    Wavelength  fosc         T2        TX        TY        TZ  
        (cm-1)      (nm)                 (au**2)    (au)      (au)      (au) 
-----------------------------------------------------------------------------
   1   31107.7    321.5   0.022972521   0.24312   0.12985   0.43033  -0.20267
   2   31541.8    317.0   0.000025048   0.00026   0.00185  -0.01606   0.00008
   3   32469.7    308.0   0.016424713   0.16653   0.09530  -0.18920  -0.34878
   4   32504.7    307.6   0.006303288   0.06384  -0.06857  -0.22705   0.08711
   5   33377.0    299.6   0.572410262   5.64594   1.83441   0.06400   1.50890
   6   33599.1    297.6   0.193418379   1.89516   0.89246  -0.69336  -0.78608
   7   36114.4    276.9   1.116555234  10.17830   1.86266  -1.61797  -2.02262
   8   36431.3    274.5   0.119817543   1.08273   0.85779   0.39331   0.43846
   9   36622.6    273.1   0.152560681   1.37141  -1.06521  -0.04197  -0.48474
  10   36714.3    272.4   0.150443065   1.34900  -0.69541   0.43529  -0.82215
  11   37040.2    270.0   0.301952413   2.68374   0.47503   1.42415  -0.65566
  12   37176.8    269.0   0.000571397   0.00506   0.02879   0.05264   0.03821
  13   37339.7    267.8   0.045614164   0.40217  -0.58215   0.18390  -0.17161
  14   37347.7    267.8   0.093308254   0.82249  -0.32794  -0.19808  -0.82202
  15   37633.1    265.7   0.390553459   3.41653   0.53798   1.61025  -0.73090
  16   38756.8    258.0   0.236248348   2.00676  -0.31830  -1.29548   0.47665
  17   39470.9    253.4   0.003097172   0.02583   0.06851   0.14426  -0.01815
  18   39570.4    252.7   0.000000061   0.00000  -0.00007   0.00070  -0.00014
  19   40174.3    248.9   0.000046375   0.00038  -0.01404   0.00955   0.00958
  20   40199.8    248.8   0.077093946   0.63135  -0.56995   0.39232   0.39064
  21   40867.7    244.7   0.059422209   0.47868  -0.21091  -0.58933   0.29476
  22   41528.5    240.8   0.644878596   5.11219   1.87252  -0.04561   1.26641
  23   42096.6    237.5   0.000008605   0.00007   0.00237   0.00707  -0.00343
  24   42135.8    237.3   0.911319382   7.12025  -0.77584  -2.38145   0.92033
  25   42582.9    234.8   0.232249254   1.79554   0.01776   1.09643  -0.77011
  26   21009.9    476.0   spin forbidden (mult=3)
  27   23087.5    433.1   spin forbidden (mult=3)
  28   23525.2    425.1   spin forbidden (mult=3)
  29   23670.8    422.5   spin forbidden (mult=3)
  30   23835.4    419.5   spin forbidden (mult=3)
  31   24110.0    414.8   spin forbidden (mult=3)
  32   25466.9    392.7   spin forbidden (mult=3)
  33   26674.7    374.9   spin forbidden (mult=3)
  34   26738.1    374.0   spin forbidden (mult=3)
  35   27517.9    363.4   spin forbidden (mult=3)
  36   28524.2    350.6   spin forbidden (mult=3)
  37   29800.8    335.6   spin forbidden (mult=3)
  38   30023.1    333.1   spin forbidden (mult=3)
  39   30244.2    330.6   spin forbidden (mult=3)
  40   30308.9    329.9   spin forbidden (mult=3)
  41   30425.1    328.7   spin forbidden (mult=3)
  42   30469.1    328.2   spin forbidden (mult=3)
  43   30527.4    327.6   spin forbidden (mult=3)
  44   30563.5    327.2   spin forbidden (mult=3)
  45   30603.7    326.8   spin forbidden (mult=3)
  46   31363.9    318.8   spin forbidden (mult=3)
  47   31370.3    318.8   spin forbidden (mult=3)
  48   31578.8    316.7   spin forbidden (mult=3)
  49   32388.4    308.8   spin forbidden (mult=3)
  50   34390.3    290.8   spin forbidden (mult=3)

-----------------------------------------------------------------------------
         ABSORPTION SPECTRUM VIA TRANSITION VELOCITY DIPOLE MOMENTS
-----------------------------------------------------------------------------
State   Energy    Wavelength   fosc        P2         PX        PY        PZ  
        (cm-1)      (nm)                 (au**2)     (au)      (au)      (au) 
-----------------------------------------------------------------------------
   1   31107.7    321.5   0.006672560   0.00142  -0.01092  -0.03151   0.01751
   2   31541.8    317.0   0.000023407   0.00001   0.00010   0.00219  -0.00048
   3   32469.7    308.0   0.026049864   0.00578   0.02771   0.02173   0.06739
   4   32504.7    307.6   0.004386184   0.00097   0.01054   0.02787  -0.00929
   5   33377.0    299.6   0.282761660   0.06450  -0.19260  -0.00910  -0.16530
   6   33599.1    297.6   0.093920787   0.02157  -0.10663   0.07159   0.07122
   7   36114.4    276.9   0.504640896   0.12456  -0.20728   0.17892   0.22266
   8   36431.3    274.5   0.058403207   0.01454  -0.07454  -0.06208  -0.07163
   9   36622.6    273.1   0.096941868   0.02426   0.15371  -0.02417   0.00732
  10   36714.3    272.4   0.075515506   0.01895   0.05632  -0.03334   0.12110
  11   37040.2    270.0   0.131878068   0.03339  -0.05112  -0.16086   0.06997
  12   37176.8    269.0   0.000846669   0.00022  -0.00498  -0.01358  -0.00242
  13   37339.7    267.8   0.018875102   0.00482   0.06320  -0.01929   0.02123
  14   37347.7    267.8   0.035052101   0.00895   0.03357   0.01999   0.08614
  15   37633.1    265.7   0.145559142   0.03744  -0.05560  -0.16929   0.07541
  16   38756.8    258.0   0.091268807   0.02418   0.03283   0.14383  -0.04910
  17   39470.9    253.4   0.000851323   0.00023  -0.00724  -0.01328   0.00095
  18   39570.4    252.7   0.000000022   0.00000   0.00005  -0.00006   0.00002
  19   40174.3    248.9   0.000036620   0.00001   0.00242  -0.00151  -0.00138
  20   40199.8    248.8   0.061266778   0.01683   0.09964  -0.06232  -0.05496
  21   40867.7    244.7   0.064818293   0.01810   0.04057   0.11520  -0.05645
  22   41528.5    240.8   0.374149126   0.10619  -0.27682   0.01317  -0.17144
  23   42096.6    237.5   0.000005038   0.00000  -0.00034  -0.00104   0.00051
  24   42135.8    237.3   0.534450270   0.15391   0.11975   0.34396  -0.14581
  25   42582.9    234.8   0.129266265   0.03762   0.00163  -0.17238   0.08890
  26   21009.9    476.0   spin forbidden (mult=3)
  27   23087.5    433.1   spin forbidden (mult=3)
  28   23525.2    425.1   spin forbidden (mult=3)
  29   23670.8    422.5   spin forbidden (mult=3)
  30   23835.4    419.5   spin forbidden (mult=3)
  31   24110.0    414.8   spin forbidden (mult=3)
  32   25466.9    392.7   spin forbidden (mult=3)
  33   26674.7    374.9   spin forbidden (mult=3)
  34   26738.1    374.0   spin forbidden (mult=3)
  35   27517.9    363.4   spin forbidden (mult=3)
  36   28524.2    350.6   spin forbidden (mult=3)
  37   29800.8    335.6   spin forbidden (mult=3)
  38   30023.1    333.1   spin forbidden (mult=3)
  39   30244.2    330.6   spin forbidden (mult=3)
  40   30308.9    329.9   spin forbidden (mult=3)
  41   30425.1    328.7   spin forbidden (mult=3)
  42   30469.1    328.2   spin forbidden (mult=3)
  43   30527.4    327.6   spin forbidden (mult=3)
  44   30563.5    327.2   spin forbidden (mult=3)
  45   30603.7    326.8   spin forbidden (mult=3)
  46   31363.9    318.8   spin forbidden (mult=3)
  47   31370.3    318.8   spin forbidden (mult=3)
  48   31578.8    316.7   spin forbidden (mult=3)
  49   32388.4    308.8   spin forbidden (mult=3)
  50   34390.3    290.8   spin forbidden (mult=3)

-------------------------------------------------------------------
                             CD SPECTRUM
-------------------------------------------------------------------
State  Energy     Wavelength     R         MX        MY        MZ   
       (cm-1)       (nm)     (1e40*cgs)   (au)      (au)      (au)  
-------------------------------------------------------------------
   1   31107.7    321.5     -2.56976  -0.00599  -0.00764   0.00684
   2   31541.8    317.0     -0.04368   0.00227   0.00601  -0.00327
   3   32469.7    308.0     37.67387   0.19862  -0.12223  -0.10853
   4   32504.7    307.6    -19.37416   0.05492   0.13446  -0.07805
   5   33377.0    299.6    -12.28045   0.62385  -0.56181  -0.75186
   6   33599.1    297.6    -30.21010   0.29634   0.06514   0.36050
   7   36114.4    276.9    -71.52268   1.31417   0.11797   1.19087
   8   36431.3    274.5     39.54368   0.41304  -0.36650  -0.28800
   9   36622.6    273.1    -16.06320  -0.27467   0.37511   0.64139
  10   36714.3    272.4     45.14852  -0.44330   0.24192   0.38657
  11   37040.2    270.0     36.22215   0.05090   0.03836   0.00301
  12   37176.8    269.0     -1.73776   0.00977  -0.09206   0.02300
  13   37339.7    267.8    143.83845  -0.49125   0.19105   0.09336
  14   37347.7    267.8    -137.61787  -0.19215   0.22092   0.37853
  15   37633.1    265.7    135.75060   0.08551   0.12895  -0.04691
  16   38756.8    258.0     85.32050  -0.07929  -0.12321  -0.00814
  17   39470.9    253.4     -7.71854  -0.00116  -0.10713   0.04618
  18   39570.4    252.7     -0.00007   0.00011  -0.00022  -0.00004
  19   40174.3    248.9     -0.03625   0.00495  -0.00119   0.00041
  20   40199.8    248.8    -64.93170   0.20629  -0.05642   0.00508
  21   40867.7    244.7     22.96268  -0.03441  -0.06017   0.02032
  22   41528.5    240.8    -155.68883   0.17632  -0.38496  -0.53533
  23   42096.6    237.5     -0.00059  -0.00004  -0.00003   0.00027
  24   42135.8    237.3    -53.80630  -0.12836   0.06128  -0.07364
  25   42582.9    234.8     19.30023  -0.27400   0.17258   0.18624
  26   21009.9    476.0 spin forbidden
  27   23087.5    433.1 spin forbidden
  28   23525.2    425.1 spin forbidden
  29   23670.8    422.5 spin forbidden
  30   23835.4    419.5 spin forbidden
  31   24110.0    414.8 spin forbidden
  32   25466.9    392.7 spin forbidden
  33   26674.7    374.9 spin forbidden
  34   26738.1    374.0 spin forbidden
  35   27517.9    363.4 spin forbidden
  36   28524.2    350.6 spin forbidden
  37   29800.8    335.6 spin forbidden
  38   30023.1    333.1 spin forbidden
  39   30244.2    330.6 spin forbidden
  40   30308.9    329.9 spin forbidden
  41   30425.1    328.7 spin forbidden
  42   30469.1    328.2 spin forbidden
  43   30527.4    327.6 spin forbidden
  44   30563.5    327.2 spin forbidden
  45   30603.7    326.8 spin forbidden
  46   31363.9    318.8 spin forbidden
  47   31370.3    318.8 spin forbidden
  48   31578.8    316.7 spin forbidden
  49   32388.4    308.8 spin forbidden
  50   34390.3    290.8 spin forbidden

Total run time:       33.629 sec

           *** ORCA-CIS/TD-DFT FINISHED WITHOUT ERROR ***

-----------------------
CIS/TD-DFT TOTAL ENERGY
-----------------------

    E(SCF)  =     21.110893683 Eh
    DE(CIS) =      0.141737180 Eh (Root  1)
    ----------------------------- ---------
    E(tot)  =     21.252630863 Eh


-------------------------   --------------------
FINAL SINGLE POINT ENERGY        21.252630863013
-------------------------   --------------------


                            ***************************************
                            *     ORCA property calculations      *
                            ***************************************

                                    ---------------------
                                    Active property flags
                                    ---------------------
   (+) Dipole Moment


------------------------------------------------------------------------------
                       ORCA ELECTRIC PROPERTIES CALCULATION
------------------------------------------------------------------------------

Dipole Moment Calculation                       ... on
Quadrupole Moment Calculation                   ... off
Polarizability Calculation                      ... off
GBWName                                         ... ligando-30-SRM1-S.orcinp.gbw
Electron density file                           ... ligando-30-SRM1-S.orcinp.scfp
The origin for moment calculation is the CENTER OF MASS  = ( 0.195054, -0.224361 -0.183822)

-------------
DIPOLE MOMENT
-------------
                                X             Y             Z
Electronic contribution:      4.32703      -6.28165      -6.94228
Nuclear contribution   :     -1.19667       0.49483       1.78216
                        -----------------------------------------
Total Dipole Moment    :      3.13036      -5.78682      -5.16012
                        -----------------------------------------
Magnitude (a.u.)       :      8.36142
Magnitude (Debye)      :     21.25303



--------------------
Rotational spectrum 
--------------------
 
Rotational constants in cm-1:     0.001627     0.000566     0.000557 
Rotational constants in MHz :    48.791107    16.966656    16.707371 

 Dipole components along the rotational axes: 
x,y,z [a.u.] :     2.211802     4.838844    -6.450334 
x,y,z [Debye]:     5.621955    12.299363   -16.395445 

 

Timings for individual modules:

Sum of individual times         ...       34.326 sec (=   0.572 min)
STO integral calculation        ...        0.046 sec (=   0.001 min)   0.1 %
SCF iterations                  ...        0.614 sec (=   0.010 min)   1.8 %
CIS module                      ...       33.666 sec (=   0.561 min)  98.1 %
                             ****ORCA TERMINATED NORMALLY****
TOTAL RUN TIME: 0 days 0 hours 0 minutes 34 seconds 588 msec
