
                                 *****************
                                 * O   R   C   A *
                                 *****************

                                            #,                                       
                                            ###                                      
                                            ####                                     
                                            #####                                    
                                            ######                                   
                                           ########,                                 
                                     ,,################,,,,,                         
                               ,,#################################,,                 
                          ,,##########################################,,             
                       ,#########################################, ''#####,          
                    ,#############################################,,   '####,        
                  ,##################################################,,,,####,       
                ,###########''''           ''''###############################       
              ,#####''   ,,,,##########,,,,          '''####'''          '####       
            ,##' ,,,,###########################,,,                        '##       
           ' ,,###''''                  '''############,,,                           
         ,,##''                                '''############,,,,        ,,,,,,###''
      ,#''                                            '''#######################'''  
     '                                                          ''''####''''         
             ,#######,   #######,   ,#######,      ##                                
            ,#'     '#,  ##    ##  ,#'     '#,    #''#        ######   ,####,        
            ##       ##  ##   ,#'  ##            #'  '#       #        #'  '#        
            ##       ##  #######   ##           ,######,      #####,   #    #        
            '#,     ,#'  ##    ##  '#,     ,#' ,#      #,         ##   #,  ,#        
             '#######'   ##     ##  '#######'  #'      '#     #####' # '####'        



                  #######################################################
                  #                        -***-                        #
                  #          Department of theory and spectroscopy      #
                  #    Directorship and core code : Frank Neese         #
                  #        Max Planck Institute fuer Kohlenforschung    #
                  #                Kaiser Wilhelm Platz 1               #
                  #                 D-45470 Muelheim/Ruhr               #
                  #                      Germany                        #
                  #                                                     #
                  #                  All rights reserved                #
                  #                        -***-                        #
                  #######################################################


                         Program Version 5.0.3 -  RELEASE  -


 With contributions from (in alphabetic order):
   Daniel Aravena         : Magnetic Suceptibility
   Michael Atanasov       : Ab Initio Ligand Field Theory (pilot matlab implementation)
   Alexander A. Auer      : GIAO ZORA, VPT2 properties, NMR spectrum
   Ute Becker             : Parallelization
   Giovanni Bistoni       : ED, misc. LED, open-shell LED, HFLD
   Martin Brehm           : Molecular dynamics
   Dmytro Bykov           : SCF Hessian
   Vijay G. Chilkuri      : MRCI spin determinant printing, contributions to CSF-ICE
   Dipayan Datta          : RHF DLPNO-CCSD density
   Achintya Kumar Dutta   : EOM-CC, STEOM-CC
   Dmitry Ganyushin       : Spin-Orbit,Spin-Spin,Magnetic field MRCI
   Miquel Garcia          : C-PCM and meta-GGA Hessian, CC/C-PCM, Gaussian charge scheme
   Yang Guo               : DLPNO-NEVPT2, F12-NEVPT2, CIM, IAO-localization
   Andreas Hansen         : Spin unrestricted coupled pair/coupled cluster methods
   Benjamin Helmich-Paris : MC-RPA, TRAH-SCF, COSX integrals
   Lee Huntington         : MR-EOM, pCC
   Robert Izsak           : Overlap fitted RIJCOSX, COSX-SCS-MP3, EOM
   Marcus Kettner         : VPT2
   Christian Kollmar      : KDIIS, OOCD, Brueckner-CCSD(T), CCSD density, CASPT2, CASPT2-K
   Simone Kossmann        : Meta GGA functionals, TD-DFT gradient, OOMP2, MP2 Hessian
   Martin Krupicka        : Initial AUTO-CI
   Lucas Lang             : DCDCAS
   Marvin Lechner         : AUTO-CI (C++ implementation), FIC-MRCC
   Dagmar Lenk            : GEPOL surface, SMD
   Dimitrios Liakos       : Extrapolation schemes; Compound Job, initial MDCI parallelization
   Dimitrios Manganas     : Further ROCIS development; embedding schemes
   Dimitrios Pantazis     : SARC Basis sets
   Anastasios Papadopoulos: AUTO-CI, single reference methods and gradients
   Taras Petrenko         : DFT Hessian,TD-DFT gradient, ASA, ECA, R-Raman, ABS, FL, XAS/XES, NRVS
   Peter Pinski           : DLPNO-MP2, DLPNO-MP2 Gradient
   Christoph Reimann      : Effective Core Potentials
   Marius Retegan         : Local ZFS, SOC
   Christoph Riplinger    : Optimizer, TS searches, QM/MM, DLPNO-CCSD(T), (RO)-DLPNO pert. Triples
   Tobias Risthaus        : Range-separated hybrids, TD-DFT gradient, RPA, STAB
   Michael Roemelt        : Original ROCIS implementation
   Masaaki Saitow         : Open-shell DLPNO-CCSD energy and density
   Barbara Sandhoefer     : DKH picture change effects
   Avijit Sen             : IP-ROCIS
   Kantharuban Sivalingam : CASSCF convergence, NEVPT2, FIC-MRCI
   Bernardo de Souza      : ESD, SOC TD-DFT
   Georgi Stoychev        : AutoAux, RI-MP2 NMR, DLPNO-MP2 response
   Willem Van den Heuvel  : Paramagnetic NMR
   Boris Wezisla          : Elementary symmetry handling
   Frank Wennmohs         : Technical directorship


 We gratefully acknowledge several colleagues who have allowed us to
 interface, adapt or use parts of their codes:
   Stefan Grimme, W. Hujo, H. Kruse, P. Pracht,  : VdW corrections, initial TS optimization,
                  C. Bannwarth, S. Ehlert          DFT functionals, gCP, sTDA/sTD-DF
   Ed Valeev, F. Pavosevic, A. Kumar             : LibInt (2-el integral package), F12 methods
   Garnet Chan, S. Sharma, J. Yang, R. Olivares  : DMRG
   Ulf Ekstrom                                   : XCFun DFT Library
   Mihaly Kallay                                 : mrcc  (arbitrary order and MRCC methods)
   Jiri Pittner, Ondrej Demel                    : Mk-CCSD
   Frank Weinhold                                : gennbo (NPA and NBO analysis)
   Christopher J. Cramer and Donald G. Truhlar   : smd solvation model
   Lars Goerigk                                  : TD-DFT with DH, B97 family of functionals
   V. Asgeirsson, H. Jonsson                     : NEB implementation
   FAccTs GmbH                                   : IRC, NEB, NEB-TS, DLPNO-Multilevel, CI-OPT
                                                   MM, QMMM, 2- and 3-layer-ONIOM, Crystal-QMMM,
                                                   LR-CPCM, SF, NACMEs, symmetry and pop. for TD-DFT,
                                                   nearIR, NL-DFT gradient (VV10), updates on ESD,
                                                   ML-optimized integration grids
   S Lehtola, MJT Oliveira, MAL Marques          : LibXC Library
   Liviu Ungur et al                             : ANISO software


 Your calculation uses the libint2 library for the computation of 2-el integrals
 For citations please refer to: http://libint.valeyev.net

 Your ORCA version has been built with support for libXC version: 5.1.0
 For citations please refer to: https://tddft.org/programs/libxc/

 This ORCA versions uses:
   CBLAS   interface :  Fast vector & matrix operations
   LAPACKE interface :  Fast linear algebra routines
   SCALAPACK package :  Parallel linear algebra routines
   Shared memory     :  Shared parallel matrices
   BLAS/LAPACK       :  OpenBLAS 0.3.15  USE64BITINT DYNAMIC_ARCH NO_AFFINITY SkylakeX SINGLE_THREADED
        Core in use  :  SkylakeX
   Copyright (c) 2011-2014, The OpenBLAS Project


================================================================================

----- Orbital basis set information -----
Your calculation utilizes the basis: cc-pVDZ 
       H, B-Ne : Obtained from the ccRepo (grant-hill.group.shef.ac.uk/ccrepo) Feb. 2017
                 T. H. Dunning, Jr., J. Chem. Phys. 90, 1007 (1989)
            He : Obtained from the ccRepo (grant-hill.group.shef.ac.uk/ccrepo) Feb. 2017
                 D. E. Woon, T. H. Dunning, Jr., J. Chem. Phys. 100, 2975 (1994)
  Li-Be, Na-Mg : Obtained from the ccRepo (grant-hill.group.shef.ac.uk/ccrepo) Feb. 2017
                 B. P. Prascher, D. E. Woon, K. A. Peterson, T. H. Dunning, Jr., A. K. Wilson, Theor. Chem. Acc. 128, 69 (2011)
         Al-Ar : Obtained from the ccRepo (grant-hill.group.shef.ac.uk/ccrepo) Feb. 2017
                 D. E. Woon, T. H. Dunning, Jr., J. Chem. Phys. 98, 1358 (1993)
            Ca : Obtained from the Peterson Research Group Website (tyr0.chem.wsu.edu/~kipeters) Feb. 2017
                 J. Koput, K. A. Peterson, J. Phys. Chem. 106, 9595 (2002)
         Sc-Zn : Obtained from the ccRepo (grant-hill.group.shef.ac.uk/ccrepo) Feb. 2017
                 N. B. Balabanov, K. A. Peterson, J. Chem. Phys. 123, 064107 (2005)
                 N. B. Balabanov, K. A. Peterson, J. Chem. Phys. 125, 074110 (2006)
         Ga-Kr : Obtained from the ccRepo (grant-hill.group.shef.ac.uk/ccrepo) Feb. 2017
                 A. K. Wilson, D. E. Woon, K. A. Peterson, T. H. Dunning, Jr., J. Chem. Phys. 110, 7667 (1999)

----- AuxJ basis set information -----
Your calculation utilizes the auxiliary basis: def2/J
   F. Weigend, Phys. Chem. Chem. Phys. 8, 1057 (2006).

----- AuxC basis set information -----
Your calculation utilizes the auxiliary basis: cc-pVDZ/C 
  H-He, B, Ne, Al-Ar, Ga-Br : Obtained from the EMSL Basis Set Exchange (bse.pnl.gov) Feb. 2017
                              F. Weigend, A. Kohn, C. Hattig, J. Chem. Phys. 116, 3175 (2002)
               Li-Be, Na-Mg : Obtained from the EMSL Basis Set Exchange (bse.pnl.gov) Feb. 2017
                              C. Haettig, Phys. Chem. Chem. Phys. 7, 59 (2005)
                        C-F : Obtained from the EMSL Basis Set Exchange (bse.pnl.gov) Feb. 2017
                              C. Haettig, Phys. Chem. Chem. Phys. 7, 59 (2005)
                              F. Weigend, A. Kohn, C. Hattig, J. Chem. Phys. 116, 3175 (2002)
                         Kr : Obtained from the TURBOMOLE 7.0 basis set library
                              F. Weigend, A. Kohn, C. Hattig, J. Chem. Phys. 116, 3175 (2002)
                              S function revised in Sep. 2009

================================================================================
                                        WARNINGS
                       Please study these warnings very carefully!
================================================================================

INFO   : Checking CIS options ...
  ===> : (D) CORRECTION FOUND - SETTING MODE=3
  ===> : JK MODE FOUND - ACTIVATING RI-MP2 CODE
  ===> : MP2 AND CIS FOUND - CHECKING
WARNING: CIS(D) and MP2 runs must have the same orbital window
  ===> : adjusting orbital windows

WARNING: No MP2 level density has been requested!
         To caclulate MP2 level properties use
         %mp2 Density relaxed end
         or
         %mp2 Density unrelaxed end
         Otherwise for double-hybrid DFT only the energy is correct!

WARNING: The frozen-core approximation is turned on by default for 
         the MP2 part of double-hybrid DFT.

WARNING:  You are using a Range-Separated Double Hybrid functional with Doubles Correction 
          Changing Mode to AOINTS 


WARNING: CIS/ROCIS methods need fully converged wavefunctions
  ===> : Setting SCFConvForced true
         You can overwrite this default with %scf ConvForced false 


INFO   : the flag for use of the SHARK integral package has been found!

================================================================================
                                       INPUT FILE
================================================================================
NAME = ADBNA_Me_Mes_MesCz.inp
|  1> ! wPBEPP86 NOCOSX cc-pVDZ/C cc-pVDZ TightSCF
|  2> %Pal NProcs 8 end
|  3> %MaxCore 5000
|  4> %SCF
|  5>     AutoTRAH    True
|  6>     CNVDamp     False
|  7>     CNVZerner   False
|  8>     end
|  9> %cis 
| 10>     NRoots      10
| 11>     Triplets    true
| 12>     TDA         true
| 13>     IRoot       1
| 14>     IROOTMULT   Triplet
| 15>     DoSOC       false
| 16>     DoNTO       True
| 17>     end
| 18> *xyz 0 1
| 19> C           -10.49500200     6.84375100     2.06081700
| 20> C           -11.89791600     6.75036900     2.15607000
| 21> C           -12.54084500     5.63388000     2.66444600
| 22> C           -11.73155700     4.55259000     3.05262800
| 23> C           -10.35062900     4.61029700     2.99396900
| 24> C            -9.70986900     5.77718100     2.53984700
| 25> N            -8.30252600     5.83374000     2.48921800
| 26> C            -7.66353400     6.63742400     1.55093100
| 27> C            -7.54905500     5.06304700     3.39548900
| 28> C            -6.34949600     8.28816600    -0.35624500
| 29> C            -7.67503600     8.50810200     0.01229300
| 30> C            -8.36335000     7.70435400     0.93431700
| 31> C            -6.31135300     6.38471400     1.20361800
| 32> C            -5.70289400     7.21023800     0.24664300
| 33> C            -6.24178100     4.64513800     3.07890800
| 34> C            -8.06851000     4.76654100     4.66882200
| 35> C            -7.33703900     3.99974700     5.55757300
| 36> C            -6.06553600     3.49282400     5.23639900
| 37> C            -5.54084000     3.84561400     4.00460900
| 38> B            -9.83027500     7.96619900     1.26506300
| 39> B            -5.54659700     5.23886900     1.85669000
| 40> C            -5.64373300     9.17261800    -1.33487600
| 41> C           -14.02959700     5.55537100     2.77868700
| 42> C            -5.31505500     2.64014800     6.20862100
| 43> C           -10.62227900     9.20257500     0.72829100
| 44> C            -4.12598500     4.78381500     1.38444700
| 45> C           -11.47591800    11.44838100     1.03794800
| 46> C           -12.07439300    11.42739000    -0.22082500
| 47> C           -11.93720500    10.27632400    -0.99962200
| 48> C           -11.22246600     9.16981000    -0.54391400
| 49> C           -10.75624500    10.35386100     1.51959900
| 50> C            -1.70858400     4.92157700     1.49958100
| 51> C            -2.96270000     5.35705000     1.92746500
| 52> C            -4.01323500     3.78464700     0.40170800
| 53> C            -2.75512200     3.37433900    -0.03487600
| 54> C            -1.60572800     3.93703800     0.51827300
| 55> C            -3.08437400     6.42084900     2.97617200
| 56> C            -5.25965700     3.18597000    -0.17563900
| 57> N            -0.33824900     3.50860200     0.08407700
| 58> C           -11.09192400     7.93836200    -1.38898700
| 59> C           -10.11935400    10.38571000     2.87605200
| 60> C           -12.84587100    12.60369200    -0.73338400
| 61> C             0.08511100     2.19268400     0.00746900
| 62> C             1.41218100     2.16283900    -0.47598300
| 63> C             1.80134800     3.53308100    -0.69674400
| 64> C             0.69150600     4.33106000    -0.33987200
| 65> C            -0.59406100     1.02536300     0.36075000
| 66> C             0.07911700    -0.17902900     0.20360000
| 67> C             1.39277300    -0.22801100    -0.28880600
| 68> C             2.06650700     0.93781500    -0.62508100
| 69> C             0.71621500     5.72116300    -0.46578300
| 70> C             1.88536400     6.29972900    -0.94201400
| 71> C             3.00214900     5.52287200    -1.28814100
| 72> C             2.96544700     4.14027200    -1.17330900
| 73> H           -12.48304800     7.59593500     1.77928900
| 74> H           -12.20300200     3.62701700     3.39274100
| 75> H            -9.76509800     3.73454100     3.27184000
| 76> H            -8.23052300     9.34229500    -0.43137400
| 77> H            -4.66755100     6.97613700    -0.02751500
| 78> H            -9.03669400     5.16407300     4.97197600
| 79> H            -7.75743700     3.80067600     6.54668500
| 80> H            -4.53045700     3.52477300     3.72902900
| 81> H            -6.35855300     9.76555600    -1.91992900
| 82> H            -5.03193200     8.58401500    -2.03216400
| 83> H            -4.97156300     9.87366000    -0.81820700
| 84> H           -14.50979300     6.38412700     2.24322600
| 85> H           -14.34721800     5.60572500     3.83059600
| 86> H           -14.41177800     4.61136500     2.36565500
| 87> H            -5.23415500     3.13186400     7.18853400
| 88> H            -4.30065700     2.42935900     5.84670500
| 89> H            -5.82487700     1.67853500     6.36602000
| 90> H           -11.57379000    12.34089800     1.66292100
| 91> H           -12.40203200    10.23950700    -1.98955900
| 92> H            -0.79840400     5.33558500     1.93950500
| 93> H            -2.65811900     2.62292200    -0.82180300
| 94> H            -2.10065200     6.78546300     3.29959500
| 95> H            -3.61952800     6.03979400     3.85949800
| 96> H            -3.66417900     7.27710900     2.59885000
| 97> H            -5.03281100     2.42099300    -0.92968500
| 98> H            -5.88275100     3.96175000    -0.64670700
| 99> H            -5.86946000     2.72166500     0.61488100
|100> H           -11.61230700     8.05056700    -2.34938500
|101> H           -11.51028400     7.06084300    -0.87182300
|102> H           -10.03465700     7.71083900    -1.59455300
|103> H           -10.30717300    11.33711100     3.39110600
|104> H            -9.02987400    10.24533800     2.80181700
|105> H           -10.50486000     9.57094200     3.50844000
|106> H           -12.88211900    13.40995500     0.01067300
|107> H           -13.87984700    12.32259800    -0.97976800
|108> H           -12.39060900    13.00807700    -1.64904300
|109> H            -1.61017300     1.06103300     0.75426400
|110> H            -0.42681600    -1.10778900     0.47149500
|111> H             1.88814900    -1.19286000    -0.40147400
|112> H             3.09192300     0.90123900    -0.99715100
|113> H            -0.15368600     6.32636500    -0.20943200
|114> H             1.93389500     7.38428000    -1.05002600
|115> H             3.90392700     6.01326800    -1.65608700
|116> H             3.82948300     3.53476300    -1.45285400
|117> *
|118> 
|119>                          ****END OF INPUT****
================================================================================

                       ****************************
                       * Single Point Calculation *
                       ****************************

---------------------------------
CARTESIAN COORDINATES (ANGSTROEM)
---------------------------------
  C    -10.495002    6.843751    2.060817
  C    -11.897916    6.750369    2.156070
  C    -12.540845    5.633880    2.664446
  C    -11.731557    4.552590    3.052628
  C    -10.350629    4.610297    2.993969
  C     -9.709869    5.777181    2.539847
  N     -8.302526    5.833740    2.489218
  C     -7.663534    6.637424    1.550931
  C     -7.549055    5.063047    3.395489
  C     -6.349496    8.288166   -0.356245
  C     -7.675036    8.508102    0.012293
  C     -8.363350    7.704354    0.934317
  C     -6.311353    6.384714    1.203618
  C     -5.702894    7.210238    0.246643
  C     -6.241781    4.645138    3.078908
  C     -8.068510    4.766541    4.668822
  C     -7.337039    3.999747    5.557573
  C     -6.065536    3.492824    5.236399
  C     -5.540840    3.845614    4.004609
  B     -9.830275    7.966199    1.265063
  B     -5.546597    5.238869    1.856690
  C     -5.643733    9.172618   -1.334876
  C    -14.029597    5.555371    2.778687
  C     -5.315055    2.640148    6.208621
  C    -10.622279    9.202575    0.728291
  C     -4.125985    4.783815    1.384447
  C    -11.475918   11.448381    1.037948
  C    -12.074393   11.427390   -0.220825
  C    -11.937205   10.276324   -0.999622
  C    -11.222466    9.169810   -0.543914
  C    -10.756245   10.353861    1.519599
  C     -1.708584    4.921577    1.499581
  C     -2.962700    5.357050    1.927465
  C     -4.013235    3.784647    0.401708
  C     -2.755122    3.374339   -0.034876
  C     -1.605728    3.937038    0.518273
  C     -3.084374    6.420849    2.976172
  C     -5.259657    3.185970   -0.175639
  N     -0.338249    3.508602    0.084077
  C    -11.091924    7.938362   -1.388987
  C    -10.119354   10.385710    2.876052
  C    -12.845871   12.603692   -0.733384
  C      0.085111    2.192684    0.007469
  C      1.412181    2.162839   -0.475983
  C      1.801348    3.533081   -0.696744
  C      0.691506    4.331060   -0.339872
  C     -0.594061    1.025363    0.360750
  C      0.079117   -0.179029    0.203600
  C      1.392773   -0.228011   -0.288806
  C      2.066507    0.937815   -0.625081
  C      0.716215    5.721163   -0.465783
  C      1.885364    6.299729   -0.942014
  C      3.002149    5.522872   -1.288141
  C      2.965447    4.140272   -1.173309
  H    -12.483048    7.595935    1.779289
  H    -12.203002    3.627017    3.392741
  H     -9.765098    3.734541    3.271840
  H     -8.230523    9.342295   -0.431374
  H     -4.667551    6.976137   -0.027515
  H     -9.036694    5.164073    4.971976
  H     -7.757437    3.800676    6.546685
  H     -4.530457    3.524773    3.729029
  H     -6.358553    9.765556   -1.919929
  H     -5.031932    8.584015   -2.032164
  H     -4.971563    9.873660   -0.818207
  H    -14.509793    6.384127    2.243226
  H    -14.347218    5.605725    3.830596
  H    -14.411778    4.611365    2.365655
  H     -5.234155    3.131864    7.188534
  H     -4.300657    2.429359    5.846705
  H     -5.824877    1.678535    6.366020
  H    -11.573790   12.340898    1.662921
  H    -12.402032   10.239507   -1.989559
  H     -0.798404    5.335585    1.939505
  H     -2.658119    2.622922   -0.821803
  H     -2.100652    6.785463    3.299595
  H     -3.619528    6.039794    3.859498
  H     -3.664179    7.277109    2.598850
  H     -5.032811    2.420993   -0.929685
  H     -5.882751    3.961750   -0.646707
  H     -5.869460    2.721665    0.614881
  H    -11.612307    8.050567   -2.349385
  H    -11.510284    7.060843   -0.871823
  H    -10.034657    7.710839   -1.594553
  H    -10.307173   11.337111    3.391106
  H     -9.029874   10.245338    2.801817
  H    -10.504860    9.570942    3.508440
  H    -12.882119   13.409955    0.010673
  H    -13.879847   12.322598   -0.979768
  H    -12.390609   13.008077   -1.649043
  H     -1.610173    1.061033    0.754264
  H     -0.426816   -1.107789    0.471495
  H      1.888149   -1.192860   -0.401474
  H      3.091923    0.901239   -0.997151
  H     -0.153686    6.326365   -0.209432
  H      1.933895    7.384280   -1.050026
  H      3.903927    6.013268   -1.656087
  H      3.829483    3.534763   -1.452854

----------------------------
CARTESIAN COORDINATES (A.U.)
----------------------------
  NO LB      ZA    FRAG     MASS         X           Y           Z
   0 C     6.0000    0    12.011  -19.832680   12.932815    3.894380
   1 C     6.0000    0    12.011  -22.483803   12.756349    4.074382
   2 C     6.0000    0    12.011  -23.698763   10.646490    5.035073
   3 C     6.0000    0    12.011  -22.169430    8.603148    5.768631
   4 C     6.0000    0    12.011  -19.559854    8.712199    5.657781
   5 C     6.0000    0    12.011  -18.348993   10.917290    4.799615
   6 N     7.0000    0    14.007  -15.689500   11.024171    4.703940
   7 C     6.0000    0    12.011  -14.481980   12.542914    2.930835
   8 C     6.0000    0    12.011  -14.265647    9.567772    6.416544
   9 C     6.0000    0    12.011  -11.998809   15.662364   -0.673205
  10 C     6.0000    0    12.011  -14.503716   16.077983    0.023230
  11 C     6.0000    0    12.011  -15.804441   14.559119    1.765603
  12 C     6.0000    0    12.011  -11.926729   12.065361    2.274508
  13 C     6.0000    0    12.011  -10.776908   13.625375    0.466088
  14 C     6.0000    0    12.011  -11.795257    8.778039    5.818293
  15 C     6.0000    0    12.011  -15.247274    9.007457    8.822795
  16 C     6.0000    0    12.011  -13.864994    7.558426   10.502291
  17 C     6.0000    0    12.011  -11.462202    6.600481    9.895360
  18 C     6.0000    0    12.011  -10.470670    7.267157    7.567614
  19 B     5.0000    0    10.810  -18.576528   15.053934    2.390623
  20 B     5.0000    0    10.810  -10.481549    9.900028    3.508636
  21 C     6.0000    0    12.011  -10.665110   17.333736   -2.522550
  22 C     6.0000    0    12.011  -26.512096   10.498130    5.250957
  23 C     6.0000    0    12.011  -10.043998    4.989157   11.732593
  24 C     6.0000    0    12.011  -20.073198   17.390346    1.376271
  25 C     6.0000    0    12.011   -7.796982    9.040100    2.616226
  26 C     6.0000    0    12.011  -21.686342   21.634305    1.961437
  27 C     6.0000    0    12.011  -22.817296   21.594638   -0.417299
  28 C     6.0000    0    12.011  -22.558048   19.419438   -1.889012
  29 C     6.0000    0    12.011  -21.207387   17.328430   -1.027849
  30 C     6.0000    0    12.011  -20.326357   19.565962    2.871626
  31 C     6.0000    0    12.011   -3.228756    9.300433    2.833797
  32 C     6.0000    0    12.011   -5.598692   10.123357    3.642381
  33 C     6.0000    0    12.011   -7.583915    7.151946    0.759118
  34 C     6.0000    0    12.011   -5.206426    6.376577   -0.065906
  35 C     6.0000    0    12.011   -3.034386    7.439924    0.979394
  36 C     6.0000    0    12.011   -5.828622   12.133646    5.624150
  37 C     6.0000    0    12.011   -9.939311    6.020611   -0.331910
  38 N     7.0000    0    14.007   -0.639198    6.630297    0.158883
  39 C     6.0000    0    12.011  -20.960699   15.001330   -2.624805
  40 C     6.0000    0    12.011  -19.122808   19.626148    5.434951
  41 C     6.0000    0    12.011  -24.275178   23.817526   -1.385895
  42 C     6.0000    0    12.011    0.160836    4.143572    0.014114
  43 C     6.0000    0    12.011    2.668635    4.087173   -0.899478
  44 C     6.0000    0    12.011    3.404054    6.676555   -1.316655
  45 C     6.0000    0    12.011    1.306757    8.184517   -0.642265
  46 C     6.0000    0    12.011   -1.122613    1.937655    0.681719
  47 C     6.0000    0    12.011    0.149509   -0.338316    0.384748
  48 C     6.0000    0    12.011    2.631960   -0.430878   -0.545764
  49 C     6.0000    0    12.011    3.905132    1.772214   -1.181232
  50 C     6.0000    0    12.011    1.353450   10.811431   -0.880202
  51 C     6.0000    0    12.011    3.562822   11.904763   -1.780148
  52 C     6.0000    0    12.011    5.673239   10.436716   -2.434234
  53 C     6.0000    0    12.011    5.603883    7.823980   -2.217233
  54 H     1.0000    0     1.008  -23.589542   14.354237    3.362369
  55 H     1.0000    0     1.008  -23.060332    6.854069    6.411351
  56 H     1.0000    0     1.008  -18.453361    7.057260    6.182882
  57 H     1.0000    0     1.008  -15.553434   17.654379   -0.815179
  58 H     1.0000    0     1.008   -8.820393   13.182988   -0.051996
  59 H     1.0000    0     1.008  -17.076877    9.758684    9.395673
  60 H     1.0000    0     1.008  -14.659431    7.182237   12.371442
  61 H     1.0000    0     1.008   -8.561323    6.660856    7.046844
  62 H     1.0000    0     1.008  -12.015924   18.454226   -3.628140
  63 H     1.0000    0     1.008   -9.508973   16.221437   -3.840233
  64 H     1.0000    0     1.008   -9.394893   18.658513   -1.546187
  65 H     1.0000    0     1.008  -27.419535   12.064252    4.239083
  66 H     1.0000    0     1.008  -27.112313   10.593285    7.238777
  67 H     1.0000    0     1.008  -27.234314    8.714217    4.470440
  68 H     1.0000    0     1.008   -9.891119    5.918365   13.584361
  69 H     1.0000    0     1.008   -8.127064    4.590823   11.048671
  70 H     1.0000    0     1.008  -11.007422    3.171971   12.030034
  71 H     1.0000    0     1.008  -21.871293   23.320917    3.142465
  72 H     1.0000    0     1.008  -23.436444   19.349864   -3.759722
  73 H     1.0000    0     1.008   -1.508765   10.082794    3.665133
  74 H     1.0000    0     1.008   -5.023117    4.956604   -1.552983
  75 H     1.0000    0     1.008   -3.969657   12.822667    6.235331
  76 H     1.0000    0     1.008   -6.839917   11.413557    7.293394
  77 H     1.0000    0     1.008   -6.924295   13.751743    4.911115
  78 H     1.0000    0     1.008   -9.510634    4.575014   -1.756850
  79 H     1.0000    0     1.008  -11.116788    7.486623   -1.222099
  80 H     1.0000    0     1.008  -11.091672    5.143201    1.161957
  81 H     1.0000    0     1.008  -21.944080   15.213367   -4.439694
  82 H     1.0000    0     1.008  -21.751284   13.343060   -1.647507
  83 H     1.0000    0     1.008  -18.962754   14.571374   -3.013268
  84 H     1.0000    0     1.008  -19.477734   21.424035    6.408262
  85 H     1.0000    0     1.008  -17.063989   19.360883    5.294667
  86 H     1.0000    0     1.008  -19.851308   18.086459    6.629991
  87 H     1.0000    0     1.008  -24.343677   25.341142    0.020169
  88 H     1.0000    0     1.008  -26.229110   23.286335   -1.851493
  89 H     1.0000    0     1.008  -23.414858   24.581703   -3.116240
  90 H     1.0000    0     1.008   -3.042786    2.005062    1.425352
  91 H     1.0000    0     1.008   -0.806565   -2.093418    0.890996
  92 H     1.0000    0     1.008    3.568085   -2.254179   -0.758676
  93 H     1.0000    0     1.008    5.842888    1.703095   -1.884342
  94 H     1.0000    0     1.008   -0.290424   11.955097   -0.395769
  95 H     1.0000    0     1.008    3.654532   13.954267   -1.984262
  96 H     1.0000    0     1.008    7.377353   11.363430   -3.129551
  97 H     1.0000    0     1.008    7.236674    6.679734   -2.745496

--------------------------------
INTERNAL COORDINATES (ANGSTROEM)
--------------------------------
 C      0   0   0     0.000000000000     0.00000000     0.00000000
 C      1   0   0     1.409241293508     0.00000000     0.00000000
 C      2   1   0     1.385045682834   122.70638415     0.00000000
 C      3   2   1     1.405283030627   117.02106395   357.97649731
 C      4   3   2     1.383377431258   122.07709897     2.96034170
 C      5   4   3     1.406562632072   120.20134267     0.22594253
 N      6   5   4     1.409388709963   119.98537976   179.63489872
 C      7   6   5     1.390899436440   120.40860547   151.01970733
 C      7   6   5     1.408195076519   119.28822841   331.28998456
 C      8   7   6     2.844110636207   179.68778893   123.22232282
 C     10   8   7     1.393286902666    58.31100193   257.48911792
 C     11  10   8     1.403536699440   123.36260623   359.04091410
 C      8   7   6     1.418760769415   120.00457155   200.35577423
 C     10   8   7     1.394093562187    58.36684705    78.13350200
 C      9   7   6     1.408487406020   120.95367254   153.83982212
 C      9   7   6     1.406814214440   120.01907642   330.06371497
 C     16   9   7     1.383076715977   120.21113279   179.41228287
 C     17  16   9     1.406002683217   122.09883856     0.07558541
 C     18  17  16     1.384584154400   117.00454552     2.90341300
 B     12  11  10     1.526376321936   121.02572358   182.03728738
 B     13   8   7     1.524570608645   120.47014260   359.73222203
 C     10   8   7     1.496019848342   178.74359412   357.82211256
 C      3   2   1     1.495191354532   122.17893759   179.08353313
 C     18  17  16     1.495156750853   120.73065722   181.44932659
 C     20  12  11     1.563336217637   123.24010233   353.79616232
 C     21  13   8     1.564680813620   123.00618949   171.45861769
 C     25  20  12     2.422443309885   150.20676344   263.13099531
 C     27  25  20     1.393959258097    91.25488425   181.19993614
 C     28  27  25     1.396530791250   118.28249301     0.03511341
 C     29  28  27     1.393877631495   121.49061665   359.94762479
 C     27  25  20     1.395668636579    30.15877460     1.07575378
 C     26  21  13     2.424058951717   150.99383684    90.20744295
 C     32  26  21     1.394821993174    30.19260314   358.67584202
 C     26  21  13     1.405996158190   119.36964863   269.39088879
 C     34  26  21     1.393487195739   120.04215699   179.62077491
 C     32  26  21     1.393865771917    90.00051246   179.67031571
 C     33  32  26     1.498752563476   120.61358039   179.21266836
 C     34  26  21     1.498436355279   119.11297713     0.38069374
 N     36  32  26     1.406622404184   119.93045712   180.13269142
 C     30  29  28     1.499217717944   120.82496693   179.61078441
 C     31  27  25     1.498869322486   120.98114508   180.00054719
 C     28  27  25     1.497191179566   121.23465106   180.05497126
 C     39  36  32     1.384464755054   125.60043514   128.89339666
 C     43  39  36     1.412703558865   109.04274794   179.82222775
 C     44  43  39     1.441440082547   106.61553927     0.11468457
 C     39  36  32     1.384400692137   125.72001811   308.75456506
 C     43  39  36     1.395965754446   129.19996750   358.05424373
 C     47  43  39     1.388677367803   117.43568819   181.16618709
 C     48  47  43     1.403764578373   121.57425497     0.10539678
 C     49  48  47     1.387857572180   120.66174922     0.55456554
 C     46  39  36     1.396012344219   129.22448790   358.38914663
 C     51  46  39     1.388684257100   117.43212509   181.09085044
 C     52  51  46     1.403751913553   121.58688668     0.13482218
 C     53  52  51     1.387845879422   120.65597385     0.52784846
 H      2   1   3     1.095137087191   117.22483072   181.81706692
 H      4   3   2     1.092987931829   119.28431115   184.26302764
 H      5   4   3     1.089498699466   119.48097710   182.16840455
 H     11  10   8     1.096031101432   119.68588840   179.37655424
 H     14  10   8     1.096312462218   119.66858745   178.98375542
 H     16   9   7     1.089639525988   120.19930219   357.59895590
 H     17  16   9     1.093026207366   118.62394292   178.88135524
 H     19  18  17     1.095334236829   119.91801610   176.51725376
 H     22  10  11     1.097647537716   111.14978801   342.36993429
 H     22  10  11     1.098619365456   111.17131214   221.66456146
 H     22  10  11     1.100099654679   110.96311894   102.18995531
 H     23   3   2     1.097334583649   111.02517716    10.87477497
 H     23   3   2     1.099968712845   110.98813520   250.99085853
 H     23   3   2     1.099001855240   111.26256234   131.51034833
 H     24  18  17     1.099344769499   111.19000916   307.06316917
 H     24  18  17     1.097460020220   111.04195331   186.56653941
 H     24  18  17     1.099723819263   111.04141678    66.48090458
 H     27  25  20     1.093963790261   149.42005771     1.11464214
 H     29  28  27     1.094255406835   119.37374835   179.83812533
 H     32  26  21     1.092411727436   150.64054373     2.39788350
 H     35  34  26     1.092378685817   120.55811797   182.06735545
 H     37  33  32     1.097840962621   111.66178663     1.48849725
 H     37  33  32     1.100844012118   110.80780665   240.65357248
 H     37  33  32     1.100784682537   110.79549241   122.34829036
 H     38  34  26     1.097831630243   111.78735700   179.98320675
 H     38  34  26     1.100902267170   110.73946315    59.11751563
 H     38  34  26     1.101072523603   110.64219703   300.75535360
 H     40  30  29     1.098067733393   111.58044792     0.07497318
 H     40  30  29     1.101146351698   110.90149758   239.38557464
 H     40  30  29     1.100834958190   111.01753187   120.90500347
 H     41  31  27     1.098053032635   111.72938589     0.49061612
 H     41  31  27     1.100991282440   110.90033301   239.76229368
 H     41  31  27     1.101079630365   110.81003792   121.19546641
 H     42  28  27     1.097722534123   111.22505676   358.29696045
 H     42  28  27     1.099465907097   111.12723953   237.96462744
 H     42  28  27     1.099646361859   111.14072758   118.58928487
 H     47  43  39     1.090233559216   121.16027898     0.55753853
 H     48  47  43     1.091022946190   119.05984336   180.00623908
 H     49  48  47     1.090424253399   119.48882167   180.18953399
 H     50  49  48     1.091444850522   120.69908127   179.29269428
 H     51  46  39     1.090281177406   121.15865764     0.46350796
 H     52  51  46     1.090996206091   119.04984562   180.05184188
 H     53  52  51     1.090447640658   119.48791750   180.16882539
 H     54  53  52     1.091487409640   120.69935983   179.30791584

---------------------------
INTERNAL COORDINATES (A.U.)
---------------------------
 C      0   0   0     0.000000000000     0.00000000     0.00000000
 C      1   0   0     2.663080101344     0.00000000     0.00000000
 C      2   1   0     2.617357023527   122.70638415     0.00000000
 C      3   2   1     2.655600068532   117.02106395   357.97649731
 C      4   3   2     2.614204484925   122.07709897     2.96034170
 C      5   4   3     2.658018164823   120.20134267     0.22594253
 N      6   5   4     2.663358678071   119.98537976   179.63489872
 C      7   6   5     2.628419014697   120.40860547   151.01970733
 C      7   6   5     2.661103037756   119.28822841   331.28998456
 C      8   7   6     5.374590197003   179.68778893   123.22232282
 C     10   8   7     2.632930672018    58.31100193   257.48911792
 C     11  10   8     2.652299980850   123.36260623   359.04091410
 C      8   7   6     2.681069303745   120.00457155   200.35577423
 C     10   8   7     2.634455037597    58.36684705    78.13350200
 C      9   7   6     2.661655460456   120.95367254   153.83982212
 C      9   7   6     2.658493586599   120.01907642   330.06371497
 C     16   9   7     2.613636215400   120.21113279   179.41228287
 C     17  16   9     2.656960014839   122.09883856     0.07558541
 C     18  17  16     2.616484861183   117.00454552     2.90341300
 B     12  11  10     2.884433225761   121.02572358   182.03728738
 B     13   8   7     2.881020922165   120.47014260   359.73222203
 C     10   8   7     2.827067804277   178.74359412   357.82211256
 C      3   2   1     2.825502177871   122.17893759   179.08353313
 C     18  17  16     2.825436786396   120.73065722   181.44932659
 C     20  12  11     2.954277306575   123.24010233   353.79616232
 C     21  13   8     2.956818224742   123.00618949   171.45861769
 C     25  20  12     4.577754430632   150.20676344   263.13099531
 C     27  25  20     2.634201239648    91.25488425   181.19993614
 C     28  27  25     2.639060733051   118.28249301     0.03511341
 C     29  28  27     2.634046987724   121.49061665   359.94762479
 C     27  25  20     2.637431496837    30.15877460     1.07575378
 C     26  21  13     4.580807551226   150.99383684    90.20744295
 C     32  26  21     2.635831572668    30.19260314   358.67584202
 C     26  21  13     2.656947684324   119.36964863   269.39088879
 C     34  26  21     2.633309171073   120.04215699   179.62077491
 C     32  26  21     2.634024576369    90.00051246   179.67031571
 C     33  32  26     2.832231887482   120.61358039   179.21266836
 C     34  26  21     2.831634340589   119.11297713     0.38069374
 N     36  32  26     2.658131117746   119.93045712   180.13269142
 C     30  29  28     2.833110902036   120.82496693   179.61078441
 C     31  27  25     2.832452530035   120.98114508   180.00054719
 C     28  27  25     2.829281299501   121.23465106   180.05497126
 C     39  36  32     2.616259229119   125.60043514   128.89339666
 C     43  39  36     2.669622834670   109.04274794   179.82222775
 C     44  43  39     2.723926994471   106.61553927     0.11468457
 C     39  36  32     2.616138167750   125.72001811   308.75456506
 C     43  39  36     2.637992968236   129.19996750   358.05424373
 C     47  43  39     2.624219913522   117.43568819   181.16618709
 C     48  47  43     2.652730609625   121.57425497     0.10539678
 C     49  48  47     2.622670724309   120.66174922     0.55456554
 C     46  39  36     2.638081010147   129.22448790   358.38914663
 C     51  46  39     2.624232932407   117.43212509   181.09085044
 C     52  51  46     2.652706676583   121.58688668     0.13482218
 C     53  52  51     2.622648628198   120.65597385     0.52784846
 H      2   1   3     2.069509173891   117.22483072   181.81706692
 H      4   3   2     2.065447858837   119.28431115   184.26302764
 H      5   4   3     2.058854165254   119.48097710   182.16840455
 H     11  10   8     2.071198615967   119.68588840   179.37655424
 H     14  10   8     2.071730310796   119.66858745   178.98375542
 H     16   9   7     2.059120288814   120.19930219   357.59895590
 H     17  16   9     2.065520189120   118.62394292   178.88135524
 H     19  18  17     2.069881732715   119.91801610   176.51725376
 H     22  10  11     2.074253237855   111.14978801   342.36993429
 H     22  10  11     2.076089726133   111.17131214   221.66456146
 H     22  10  11     2.078887067365   110.96311894   102.18995531
 H     23   3   2     2.073661840378   111.02517716    10.87477497
 H     23   3   2     2.078639623159   110.98813520   250.99085853
 H     23   3   2     2.076812527075   111.26256234   131.51034833
 H     24  18  17     2.077460541112   111.19000916   307.06316917
 H     24  18  17     2.073898881143   111.04195331   186.56653941
 H     24  18  17     2.078176841357   111.04141678    66.48090458
 H     27  25  20     2.067291964020   149.42005771     1.11464214
 H     29  28  27     2.067843039480   119.37374835   179.83812533
 H     32  26  21     2.064358990338   150.64054373     2.39788350
 H     35  34  26     2.064296550727   120.55811797   182.06735545
 H     37  33  32     2.074618757955   111.66178663     1.48849725
 H     37  33  32     2.080293699071   110.80780665   240.65357248
 H     37  33  32     2.080181582411   110.79549241   122.34829036
 H     38  34  26     2.074601122315   111.78735700   179.98320675
 H     38  34  26     2.080403785164   110.73946315    59.11751563
 H     38  34  26     2.080725523196   110.64219703   300.75535360
 H     40  30  29     2.075047292608   111.58044792     0.07497318
 H     40  30  29     2.080865038075   110.90149758   239.38557464
 H     40  30  29     2.080276589626   111.01753187   120.90500347
 H     41  31  27     2.075019512201   111.72938589     0.49061612
 H     41  31  27     2.080571999646   110.90033301   239.76229368
 H     41  31  27     2.080738953028   110.81003792   121.19546641
 H     42  28  27     2.074394960527   111.22505676   358.29696045
 H     42  28  27     2.077689457996   111.12723953   237.96462744
 H     42  28  27     2.078030468077   111.14072758   118.58928487
 H     47  43  39     2.060242848928   121.16027898     0.55753853
 H     48  47  43     2.061734574124   119.05984336   180.00623908
 H     49  48  47     2.060603208710   119.48882167   180.18953399
 H     50  49  48     2.062531857766   120.69908127   179.29269428
 H     51  46  39     2.060332834267   121.15865764     0.46350796
 H     52  51  46     2.061684042660   119.04984562   180.05184188
 H     53  52  51     2.060647404224   119.48791750   180.16882539
 H     54  53  52     2.062612282842   120.69935983   179.30791584

---------------------
BASIS SET INFORMATION
---------------------
There are 4 groups of distinct atoms

 Group   1 Type C   : 17s4p1d contracted to 3s2p1d pattern {881/31/1}
 Group   2 Type N   : 17s4p1d contracted to 3s2p1d pattern {881/31/1}
 Group   3 Type B   : 17s4p1d contracted to 3s2p1d pattern {881/31/1}
 Group   4 Type H   : 4s1p contracted to 2s1p pattern {31/1}

Atom   0C    basis set group =>   1
Atom   1C    basis set group =>   1
Atom   2C    basis set group =>   1
Atom   3C    basis set group =>   1
Atom   4C    basis set group =>   1
Atom   5C    basis set group =>   1
Atom   6N    basis set group =>   2
Atom   7C    basis set group =>   1
Atom   8C    basis set group =>   1
Atom   9C    basis set group =>   1
Atom  10C    basis set group =>   1
Atom  11C    basis set group =>   1
Atom  12C    basis set group =>   1
Atom  13C    basis set group =>   1
Atom  14C    basis set group =>   1
Atom  15C    basis set group =>   1
Atom  16C    basis set group =>   1
Atom  17C    basis set group =>   1
Atom  18C    basis set group =>   1
Atom  19B    basis set group =>   3
Atom  20B    basis set group =>   3
Atom  21C    basis set group =>   1
Atom  22C    basis set group =>   1
Atom  23C    basis set group =>   1
Atom  24C    basis set group =>   1
Atom  25C    basis set group =>   1
Atom  26C    basis set group =>   1
Atom  27C    basis set group =>   1
Atom  28C    basis set group =>   1
Atom  29C    basis set group =>   1
Atom  30C    basis set group =>   1
Atom  31C    basis set group =>   1
Atom  32C    basis set group =>   1
Atom  33C    basis set group =>   1
Atom  34C    basis set group =>   1
Atom  35C    basis set group =>   1
Atom  36C    basis set group =>   1
Atom  37C    basis set group =>   1
Atom  38N    basis set group =>   2
Atom  39C    basis set group =>   1
Atom  40C    basis set group =>   1
Atom  41C    basis set group =>   1
Atom  42C    basis set group =>   1
Atom  43C    basis set group =>   1
Atom  44C    basis set group =>   1
Atom  45C    basis set group =>   1
Atom  46C    basis set group =>   1
Atom  47C    basis set group =>   1
Atom  48C    basis set group =>   1
Atom  49C    basis set group =>   1
Atom  50C    basis set group =>   1
Atom  51C    basis set group =>   1
Atom  52C    basis set group =>   1
Atom  53C    basis set group =>   1
Atom  54H    basis set group =>   4
Atom  55H    basis set group =>   4
Atom  56H    basis set group =>   4
Atom  57H    basis set group =>   4
Atom  58H    basis set group =>   4
Atom  59H    basis set group =>   4
Atom  60H    basis set group =>   4
Atom  61H    basis set group =>   4
Atom  62H    basis set group =>   4
Atom  63H    basis set group =>   4
Atom  64H    basis set group =>   4
Atom  65H    basis set group =>   4
Atom  66H    basis set group =>   4
Atom  67H    basis set group =>   4
Atom  68H    basis set group =>   4
Atom  69H    basis set group =>   4
Atom  70H    basis set group =>   4
Atom  71H    basis set group =>   4
Atom  72H    basis set group =>   4
Atom  73H    basis set group =>   4
Atom  74H    basis set group =>   4
Atom  75H    basis set group =>   4
Atom  76H    basis set group =>   4
Atom  77H    basis set group =>   4
Atom  78H    basis set group =>   4
Atom  79H    basis set group =>   4
Atom  80H    basis set group =>   4
Atom  81H    basis set group =>   4
Atom  82H    basis set group =>   4
Atom  83H    basis set group =>   4
Atom  84H    basis set group =>   4
Atom  85H    basis set group =>   4
Atom  86H    basis set group =>   4
Atom  87H    basis set group =>   4
Atom  88H    basis set group =>   4
Atom  89H    basis set group =>   4
Atom  90H    basis set group =>   4
Atom  91H    basis set group =>   4
Atom  92H    basis set group =>   4
Atom  93H    basis set group =>   4
Atom  94H    basis set group =>   4
Atom  95H    basis set group =>   4
Atom  96H    basis set group =>   4
Atom  97H    basis set group =>   4
---------------------------------
AUXILIARY/J BASIS SET INFORMATION
---------------------------------
There are 4 groups of distinct atoms

 Group   1 Type C   : 12s5p4d2f1g contracted to 6s4p3d1f1g pattern {711111/2111/211/2/1}
 Group   2 Type N   : 12s5p4d2f1g contracted to 6s4p3d1f1g pattern {711111/2111/211/2/1}
 Group   3 Type B   : 12s5p4d2f1g contracted to 6s4p3d1f1g pattern {711111/2111/211/2/1}
 Group   4 Type H   : 5s2p1d contracted to 3s1p1d pattern {311/2/1}

Atom   0C    basis set group =>   1
Atom   1C    basis set group =>   1
Atom   2C    basis set group =>   1
Atom   3C    basis set group =>   1
Atom   4C    basis set group =>   1
Atom   5C    basis set group =>   1
Atom   6N    basis set group =>   2
Atom   7C    basis set group =>   1
Atom   8C    basis set group =>   1
Atom   9C    basis set group =>   1
Atom  10C    basis set group =>   1
Atom  11C    basis set group =>   1
Atom  12C    basis set group =>   1
Atom  13C    basis set group =>   1
Atom  14C    basis set group =>   1
Atom  15C    basis set group =>   1
Atom  16C    basis set group =>   1
Atom  17C    basis set group =>   1
Atom  18C    basis set group =>   1
Atom  19B    basis set group =>   3
Atom  20B    basis set group =>   3
Atom  21C    basis set group =>   1
Atom  22C    basis set group =>   1
Atom  23C    basis set group =>   1
Atom  24C    basis set group =>   1
Atom  25C    basis set group =>   1
Atom  26C    basis set group =>   1
Atom  27C    basis set group =>   1
Atom  28C    basis set group =>   1
Atom  29C    basis set group =>   1
Atom  30C    basis set group =>   1
Atom  31C    basis set group =>   1
Atom  32C    basis set group =>   1
Atom  33C    basis set group =>   1
Atom  34C    basis set group =>   1
Atom  35C    basis set group =>   1
Atom  36C    basis set group =>   1
Atom  37C    basis set group =>   1
Atom  38N    basis set group =>   2
Atom  39C    basis set group =>   1
Atom  40C    basis set group =>   1
Atom  41C    basis set group =>   1
Atom  42C    basis set group =>   1
Atom  43C    basis set group =>   1
Atom  44C    basis set group =>   1
Atom  45C    basis set group =>   1
Atom  46C    basis set group =>   1
Atom  47C    basis set group =>   1
Atom  48C    basis set group =>   1
Atom  49C    basis set group =>   1
Atom  50C    basis set group =>   1
Atom  51C    basis set group =>   1
Atom  52C    basis set group =>   1
Atom  53C    basis set group =>   1
Atom  54H    basis set group =>   4
Atom  55H    basis set group =>   4
Atom  56H    basis set group =>   4
Atom  57H    basis set group =>   4
Atom  58H    basis set group =>   4
Atom  59H    basis set group =>   4
Atom  60H    basis set group =>   4
Atom  61H    basis set group =>   4
Atom  62H    basis set group =>   4
Atom  63H    basis set group =>   4
Atom  64H    basis set group =>   4
Atom  65H    basis set group =>   4
Atom  66H    basis set group =>   4
Atom  67H    basis set group =>   4
Atom  68H    basis set group =>   4
Atom  69H    basis set group =>   4
Atom  70H    basis set group =>   4
Atom  71H    basis set group =>   4
Atom  72H    basis set group =>   4
Atom  73H    basis set group =>   4
Atom  74H    basis set group =>   4
Atom  75H    basis set group =>   4
Atom  76H    basis set group =>   4
Atom  77H    basis set group =>   4
Atom  78H    basis set group =>   4
Atom  79H    basis set group =>   4
Atom  80H    basis set group =>   4
Atom  81H    basis set group =>   4
Atom  82H    basis set group =>   4
Atom  83H    basis set group =>   4
Atom  84H    basis set group =>   4
Atom  85H    basis set group =>   4
Atom  86H    basis set group =>   4
Atom  87H    basis set group =>   4
Atom  88H    basis set group =>   4
Atom  89H    basis set group =>   4
Atom  90H    basis set group =>   4
Atom  91H    basis set group =>   4
Atom  92H    basis set group =>   4
Atom  93H    basis set group =>   4
Atom  94H    basis set group =>   4
Atom  95H    basis set group =>   4
Atom  96H    basis set group =>   4
Atom  97H    basis set group =>   4
---------------------------------
AUXILIARY/C BASIS SET INFORMATION
---------------------------------
There are 4 groups of distinct atoms

 Group   1 Type C   : 7s5p4d2f contracted to 7s5p4d2f pattern {1111111/11111/1111/11}
 Group   2 Type N   : 7s5p4d2f contracted to 7s5p4d2f pattern {1111111/11111/1111/11}
 Group   3 Type B   : 7s5p4d2f contracted to 7s5p4d2f pattern {1111111/11111/1111/11}
 Group   4 Type H   : 3s2p1d contracted to 3s2p1d pattern {111/11/1}

Atom   0C    basis set group =>   1
Atom   1C    basis set group =>   1
Atom   2C    basis set group =>   1
Atom   3C    basis set group =>   1
Atom   4C    basis set group =>   1
Atom   5C    basis set group =>   1
Atom   6N    basis set group =>   2
Atom   7C    basis set group =>   1
Atom   8C    basis set group =>   1
Atom   9C    basis set group =>   1
Atom  10C    basis set group =>   1
Atom  11C    basis set group =>   1
Atom  12C    basis set group =>   1
Atom  13C    basis set group =>   1
Atom  14C    basis set group =>   1
Atom  15C    basis set group =>   1
Atom  16C    basis set group =>   1
Atom  17C    basis set group =>   1
Atom  18C    basis set group =>   1
Atom  19B    basis set group =>   3
Atom  20B    basis set group =>   3
Atom  21C    basis set group =>   1
Atom  22C    basis set group =>   1
Atom  23C    basis set group =>   1
Atom  24C    basis set group =>   1
Atom  25C    basis set group =>   1
Atom  26C    basis set group =>   1
Atom  27C    basis set group =>   1
Atom  28C    basis set group =>   1
Atom  29C    basis set group =>   1
Atom  30C    basis set group =>   1
Atom  31C    basis set group =>   1
Atom  32C    basis set group =>   1
Atom  33C    basis set group =>   1
Atom  34C    basis set group =>   1
Atom  35C    basis set group =>   1
Atom  36C    basis set group =>   1
Atom  37C    basis set group =>   1
Atom  38N    basis set group =>   2
Atom  39C    basis set group =>   1
Atom  40C    basis set group =>   1
Atom  41C    basis set group =>   1
Atom  42C    basis set group =>   1
Atom  43C    basis set group =>   1
Atom  44C    basis set group =>   1
Atom  45C    basis set group =>   1
Atom  46C    basis set group =>   1
Atom  47C    basis set group =>   1
Atom  48C    basis set group =>   1
Atom  49C    basis set group =>   1
Atom  50C    basis set group =>   1
Atom  51C    basis set group =>   1
Atom  52C    basis set group =>   1
Atom  53C    basis set group =>   1
Atom  54H    basis set group =>   4
Atom  55H    basis set group =>   4
Atom  56H    basis set group =>   4
Atom  57H    basis set group =>   4
Atom  58H    basis set group =>   4
Atom  59H    basis set group =>   4
Atom  60H    basis set group =>   4
Atom  61H    basis set group =>   4
Atom  62H    basis set group =>   4
Atom  63H    basis set group =>   4
Atom  64H    basis set group =>   4
Atom  65H    basis set group =>   4
Atom  66H    basis set group =>   4
Atom  67H    basis set group =>   4
Atom  68H    basis set group =>   4
Atom  69H    basis set group =>   4
Atom  70H    basis set group =>   4
Atom  71H    basis set group =>   4
Atom  72H    basis set group =>   4
Atom  73H    basis set group =>   4
Atom  74H    basis set group =>   4
Atom  75H    basis set group =>   4
Atom  76H    basis set group =>   4
Atom  77H    basis set group =>   4
Atom  78H    basis set group =>   4
Atom  79H    basis set group =>   4
Atom  80H    basis set group =>   4
Atom  81H    basis set group =>   4
Atom  82H    basis set group =>   4
Atom  83H    basis set group =>   4
Atom  84H    basis set group =>   4
Atom  85H    basis set group =>   4
Atom  86H    basis set group =>   4
Atom  87H    basis set group =>   4
Atom  88H    basis set group =>   4
Atom  89H    basis set group =>   4
Atom  90H    basis set group =>   4
Atom  91H    basis set group =>   4
Atom  92H    basis set group =>   4
Atom  93H    basis set group =>   4
Atom  94H    basis set group =>   4
Atom  95H    basis set group =>   4
Atom  96H    basis set group =>   4
Atom  97H    basis set group =>   4
--------------------------------------------------------------------------
WARNING: There was an error initializing an OpenFabrics device.

  Local host:   kennedy140
  Local device: mlx5_0
--------------------------------------------------------------------------


           ************************************************************
           *        Program running with 8 parallel MPI-processes     *
           *              working on a common directory               *
           ************************************************************
------------------------------------------------------------------------------
                           ORCA GTO INTEGRAL CALCULATION
                           -- RI-GTO INTEGRALS CHOSEN --
------------------------------------------------------------------------------
------------------------------------------------------------------------------
                   ___                                                        
                  /   \      - P O W E R E D   B Y -                         
                 /     \                                                     
                 |  |  |   _    _      __       _____    __    __             
                 |  |  |  | |  | |    /  \     |  _  \  |  |  /  |          
                  \  \/   | |  | |   /    \    | | | |  |  | /  /          
                 / \  \   | |__| |  /  /\  \   | |_| |  |  |/  /          
                |  |  |   |  __  | /  /__\  \  |    /   |      \           
                |  |  |   | |  | | |   __   |  |    \   |  |\   \          
                \     /   | |  | | |  |  |  |  | |\  \  |  | \   \       
                 \___/    |_|  |_| |__|  |__|  |_| \__\ |__|  \__/        
                                                                              
                      - O R C A' S   B I G   F R I E N D -                    
                                      &                                       
                       - I N T E G R A L  F E E D E R -                       
                                                                              
 v1 FN, 2020, v2 2021                                                         
------------------------------------------------------------------------------


Reading SHARK input file ADBNA_Me_Mes_MesCz.SHARKINP.tmp ... [kennedy140:79639] 7 more processes have sent help message help-mpi-btl-openib.txt / error in device init
[kennedy140:79639] Set MCA parameter "orte_base_help_aggregate" to 0 to see all help / error messages
ok
----------------------
SHARK INTEGRAL PACKAGE
----------------------

Number of atoms                             ...     98
Number of basis functions                   ...   1300
Number of shells                            ...    780
Maximum angular momentum                    ...      2
Integral batch strategy                     ... SHARK/LIBINT Hybrid
RI-J (if used) integral strategy            ... SPLIT-RIJ (Revised 2003 algorithm where possible)
Printlevel                                  ...      1
Contraction scheme used                     ... PARTIAL GENERAL contraction
Coulomb Range Separation                    ... NOT USED
Exchange Range Separation                   ... Long Range
   Mu parameter                             ...  0.180000
   Scaling (regular/separated)              ...  0.700000  0.300000
Finite Nucleus Model                        ... NOT USED
Auxiliary Coulomb fitting basis             ... AVAILABLE
   # of basis functions in Aux-J            ...   3130
   # of shells in Aux-J                     ...   1030
   Maximum angular momentum in Aux-J        ...      4
Auxiliary J/K fitting basis                 ... NOT available
Auxiliary Correlation fitting basis         ... AVAILABLE
   # of basis functions in Aux-C            ...   3640
   # of shells in Aux-C                     ...   1236
   Maximum angular momentum in Aux-C        ...      3
Auxiliary 'external' fitting basis          ... NOT available
Integral threshold                          ...     2.500000e-11
Primitive cut-off                           ...     2.500000e-12
Primitive pair pre-selection threshold      ...     2.500000e-12

Calculating pre-screening integrals         ... done (  0.2 sec) Dimension = 780
Calculating pre-screening integrals (ORCA)  ... done (  0.7 sec) Dimension = 456
Organizing shell pair data                  ... done (  1.6 sec)
Shell pair information
Total number of shell pairs                 ...    304590
Shell pairs after pre-screening             ...     87392
Total number of primitive shell pairs       ...    477070
Primitive shell pairs kept                  ...    113694
          la=0 lb=0:  36790 shell pairs
          la=1 lb=0:  31400 shell pairs
          la=1 lb=1:   5594 shell pairs
          la=2 lb=0:   9429 shell pairs
          la=2 lb=1:   3574 shell pairs
          la=2 lb=2:    605 shell pairs

Calculating one electron integrals          ... done (  0.3 sec)
Calculating RI/J V-Matrix + Cholesky decomp.... done (  5.1 sec)
Calculating RI/C V-Matrix + Cholesky decomp.... done (  2.8 sec)
Calculating Nuclear repulsion               ... done (  0.0 sec) ENN=   6530.756474917842 Eh

SHARK setup successfully completed in  16.5 seconds

Maximum memory used throughout the entire GTOINT-calculation: 123.1 MB
--------------------------------------------------------------------------
WARNING: There was an error initializing an OpenFabrics device.

  Local host:   kennedy140
  Local device: mlx5_0
--------------------------------------------------------------------------


           ************************************************************
           *        Program running with 8 parallel MPI-processes     *
           *              working on a common directory               *
           ************************************************************
-------------------------------------------------------------------------------
                                 ORCA SCF
-------------------------------------------------------------------------------

------------
SCF SETTINGS
------------
Hamiltonian:
 Density Functional     Method          .... DFT(GTOs)
 Exchange Functional    Exchange        .... LC-PBE
 Correlation Functional Correlation     .... P86
 LDA part of GGA corr.  LDAOpt          .... VWN-5
 Gradients option       PostSCFGGA      .... off
 Hybrid DFT is turned on
   Fraction HF Exchange ScalHFX         ....  0.700000
   Scaling of DF-GGA-X  ScalDFX         ....  0.000000
   Scaling of DF-GGA-C  ScalDFC         ....  0.680000
   Scaling of DF-LDA-C  ScalLDAC        ....  0.680000
   Perturbative correction              ....  0.480000
   Density functional embedding theory  .... OFF
 Long-range corrected/Screened/Range-Separated Hybrid DFT is turned on
   Amount of maximum screened exact exchange              ....  0.300000
   Range separation parameter mu (erf(mu*r12)/r12)        ....  0.180000
 RI-approximation to the Coulomb term is turned on
   Number of AuxJ basis functions       .... 3130
   RIJ-ON(X) (HFX calculated with O(N)) .... on


General Settings:
 Integral files         IntName         .... ADBNA_Me_Mes_MesCz
 Hartree-Fock type      HFTyp           .... RHF
 Total Charge           Charge          ....    0
 Multiplicity           Mult            ....    1
 Number of Electrons    NEL             ....  368
 Basis Dimension        Dim             ....  976
 Nuclear Repulsion      ENuc            ....   6530.7564749178 Eh

Convergence Acceleration:
 DIIS                   CNVDIIS         .... on
   Start iteration      DIISMaxIt       ....    12
   Startup error        DIISStart       ....  0.200000
   # of expansion vecs  DIISMaxEq       ....     5
   Bias factor          DIISBfac        ....   1.050
   Max. coefficient     DIISMaxC        ....  10.000
 Trust-Rad. Augm. Hess. CNVTRAH         .... auto
   Auto Start mean grad. ratio tolernc. ....  1.125000
   Auto Start start iteration           ....    20
   Auto Start num. interpolation iter.  ....    10
   Max. Number of Micro iterations      ....    16
   Max. Number of Macro iterations      .... Maxiter - #DIIS iter
   Number of Davidson start vectors     ....     2
   Converg. threshold I  (grad. norm)   ....   1.000e-05
   Converg. threshold II (energy diff.) ....   1.000e-08
   Grad. Scal. Fac. for Micro threshold ....   0.100
   Minimum threshold for Micro iter.    ....   0.010
   NR start threshold (gradient norm)   ....   0.001
   Initial trust radius                 ....   0.400
   Minimum AH scaling param. (alpha)    ....   1.000
   Maximum AH scaling param. (alpha)    .... 1000.000
   Orbital update algorithm             .... Taylor
   White noise on init. David. guess    .... on
   Maximum white noise                  ....   0.010
   Quad. conv. algorithm                .... NR
   COSX micro iterations for RIJONX calc.... off
 SOSCF                  CNVSOSCF        .... on
   Start iteration      SOSCFMaxIt      ....   150
   Startup grad/error   SOSCFStart      ....  0.003300
 Level Shifting         CNVShift        .... on
   Level shift para.    LevelShift      ....    0.2500
   Turn off err/grad.   ShiftErr        ....    0.0010
 Zerner damping         CNVZerner       .... off
 Static damping         CNVDamp         .... off
 Fernandez-Rico         CNVRico         .... off

SCF Procedure:
 Maximum # iterations   MaxIter         ....   125
 SCF integral mode      SCFMode         .... Direct
   Integral package                     .... SHARK and LIBINT hybrid scheme
 Reset frequency        DirectResetFreq ....    20
 Integral Threshold     Thresh          ....  2.500e-11 Eh
 Primitive CutOff       TCut            ....  2.500e-12 Eh

Convergence Tolerance:
 Convergence Check Mode ConvCheckMode   .... Total+1el-Energy
 Convergence forced     ConvForced      .... 1
 Energy Change          TolE            ....  1.000e-08 Eh
 1-El. energy change                    ....  1.000e-05 Eh
 Orbital Gradient       TolG            ....  1.000e-05
 Orbital Rotation angle TolX            ....  1.000e-05
 DIIS Error             TolErr          ....  5.000e-07


Diagonalization of the overlap matrix:
[kennedy140:79733] 7 more processes have sent help message help-mpi-btl-openib.txt / error in device init
[kennedy140:79733] Set MCA parameter "orte_base_help_aggregate" to 0 to see all help / error messages
Smallest eigenvalue                        ... 1.414e-04
Time for diagonalization                   ...    2.290 sec
Threshold for overlap eigenvalues          ... 1.000e-08
Number of eigenvalues below threshold      ... 0
Time for construction of square roots      ...    0.500 sec
Total time needed                          ...    2.810 sec

Time for model grid setup =    6.843 sec

------------------------------
INITIAL GUESS: MODEL POTENTIAL
------------------------------
Loading Hartree-Fock densities                     ... done
Calculating cut-offs                               ... done
Initializing the effective Hamiltonian             ... done
Setting up the integral package (SHARK)            ... done
Starting the Coulomb interaction                   ... done (   7.5 sec)
Reading the grid                                   ... done
Mapping shells                                     ... done
Starting the XC term evaluation                    ... done (   2.1 sec)
  promolecular density results
     # of electrons  =    367.996192891
     EX              =   -277.918971220
     EC              =     -6.035357086
     EX+EC           =   -283.954328306
Transforming the Hamiltonian                       ... done (   0.2 sec)
Diagonalizing the Hamiltonian                      ... done (   0.3 sec)
Back transforming the eigenvectors                 ... done (   0.1 sec)
Now organizing SCF variables                       ... done
                      ------------------
                      INITIAL GUESS DONE (  18.4 sec)
                      ------------------
-------------------
DFT GRID GENERATION
-------------------

General Integration Accuracy     IntAcc      ... 4.388
Radial Grid Type                 RadialGrid  ... OptM3 with GC (2021)
Angular Grid (max. ang.)         AngularGrid ... 4 (Lebedev-302)
Angular grid pruning method      GridPruning ... 4 (adaptive)
Weight generation scheme         WeightScheme... Becke
Basis function cutoff            BFCut       ... 1.0000e-11
Integration weight cutoff        WCut        ... 1.0000e-14
Angular grids for H and He will be reduced by one unit
Partially contracted basis set               ... off
Rotationally invariant grid construction     ... off

Total number of grid points                  ...   458262
Total number of batches                      ...     7212
Average number of points per batch           ...       63
Average number of grid points per atom       ...     4676
Time for grid setup =   19.660 sec

--------------
SCF ITERATIONS
--------------
ITER       Energy         Delta-E        Max-DP      RMS-DP      [F,P]
               ***  Starting incremental Fock matrix formation  ***
  0  -2084.0584004510   0.000000000000 0.30197414  0.00385973  0.1592061
  1  -2085.2048707914  -1.146470340486 0.05762623  0.00071585  0.0417145
                               ***Turning on DIIS***
  2  -2085.2681520029  -0.063281211470 0.03600557  0.00028633  0.0278524
  3  -2085.2798479338  -0.011695930893 0.01119505  0.00010128  0.0208686
  4  -2085.2852898391  -0.005441905298 0.00361976  0.00005073  0.0034439
  5  -2085.2859057918  -0.000615952670 0.00208426  0.00002722  0.0021317
                      *** Initiating the SOSCF procedure ***
                           *** Shutting down DIIS ***
                      *** Re-Reading the Fockian *** 
                      *** Removing any level shift *** 
ITER      Energy       Delta-E        Grad      Rot      Max-DP    RMS-DP
  6  -2085.28608285  -0.0001770573  0.002372  0.002372  0.001953  0.000022
               *** Restarting incremental Fock matrix formation ***
  7  -2085.28616022  -0.0000773735  0.000578  0.001758  0.000756  0.000006
  8  -2085.28616850  -0.0000082735  0.000373  0.002273  0.000686  0.000007
  9  -2085.28617281  -0.0000043120  0.000047  0.000100  0.000095  0.000001
 10  -2085.28617292  -0.0000001090  0.000041  0.000065  0.000058  0.000000
 11  -2085.28617303  -0.0000001145  0.000008  0.000035  0.000017  0.000000
 12  -2085.28617312  -0.0000000862  0.000005  0.000024  0.000010  0.000000
                  ***Gradient check signals convergence***
              ***Rediagonalizing the Fockian in SOSCF/NRSCF***

               *****************************************************
               *                     SUCCESS                       *
               *           SCF CONVERGED AFTER  13 CYCLES          *
               *****************************************************


----------------
TOTAL SCF ENERGY
----------------

Total Energy       :        -2085.28617318 Eh          -56743.52156 eV

Components:
Nuclear Repulsion  :         6530.75647492 Eh          177710.91833 eV
Electronic Energy  :        -8616.04264809 Eh         -234454.43989 eV
One Electron Energy:       -15826.35009674 Eh         -430656.88031 eV
Two Electron Energy:         7210.30744865 Eh          196202.44042 eV

Virial components:
Potential Energy   :        -4160.96196063 Eh         -113225.53122 eV
Kinetic Energy     :         2075.67578745 Eh           56482.00967 eV
Virial Ratio       :            2.00463000


DFT components:
N(Alpha)           :      183.999810994711 electrons
N(Beta)            :      183.999810994711 electrons
N(Total)           :      367.999621989421 electrons
E(X)               :      -76.630603295839 Eh       
E(C)               :       -9.203566424051 Eh       
E(XC)              :      -85.834169719890 Eh       
DFET-embed. en.    :        0.000000000000 Eh       

---------------
SCF CONVERGENCE
---------------

  Last Energy change         ...   -5.8690e-08  Tolerance :   1.0000e-08
  Last MAX-Density change    ...    4.4200e-06  Tolerance :   1.0000e-07
  Last RMS-Density change    ...    4.0981e-08  Tolerance :   5.0000e-09
  Last Orbital Gradient      ...    1.6660e-06  Tolerance :   1.0000e-05
  Last Orbital Rotation      ...    3.2702e-06  Tolerance :   1.0000e-05

             **** THE GBW FILE WAS UPDATED (ADBNA_Me_Mes_MesCz.gbw) ****
             **** DENSITY ADBNA_Me_Mes_MesCz.scfp WAS UPDATED ****
             **** ENERGY FILE WAS UPDATED (ADBNA_Me_Mes_MesCz.en.tmp) ****
             **** THE GBW FILE WAS UPDATED (ADBNA_Me_Mes_MesCz.gbw) ****
             **** DENSITY ADBNA_Me_Mes_MesCz.scfp WAS UPDATED ****
----------------
ORBITAL ENERGIES
----------------

  NO   OCC          E(Eh)            E(eV) 
   0   2.0000     -15.200619      -413.6299 
   1   2.0000     -15.180592      -413.0849 
   2   2.0000     -10.933786      -297.5234 
   3   2.0000     -10.933712      -297.5214 
   4   2.0000     -10.932260      -297.4819 
   5   2.0000     -10.918771      -297.1149 
   6   2.0000     -10.910809      -296.8982 
   7   2.0000     -10.910724      -296.8959 
   8   2.0000     -10.888745      -296.2978 
   9   2.0000     -10.888041      -296.2787 
  10   2.0000     -10.887094      -296.2529 
  11   2.0000     -10.886759      -296.2438 
  12   2.0000     -10.885885      -296.2200 
  13   2.0000     -10.885209      -296.2016 
  14   2.0000     -10.884319      -296.1774 
  15   2.0000     -10.883287      -296.1493 
  16   2.0000     -10.882405      -296.1253 
  17   2.0000     -10.881793      -296.1086 
  18   2.0000     -10.880919      -296.0849 
  19   2.0000     -10.878306      -296.0138 
  20   2.0000     -10.878076      -296.0075 
  21   2.0000     -10.875171      -295.9284 
  22   2.0000     -10.875157      -295.9281 
  23   2.0000     -10.874153      -295.9008 
  24   2.0000     -10.873687      -295.8881 
  25   2.0000     -10.873643      -295.8869 
  26   2.0000     -10.873244      -295.8760 
  27   2.0000     -10.873178      -295.8742 
  28   2.0000     -10.871436      -295.8268 
  29   2.0000     -10.871342      -295.8242 
  30   2.0000     -10.871233      -295.8213 
  31   2.0000     -10.871067      -295.8168 
  32   2.0000     -10.870983      -295.8145 
  33   2.0000     -10.870457      -295.8002 
  34   2.0000     -10.869778      -295.7817 
  35   2.0000     -10.869619      -295.7774 
  36   2.0000     -10.867081      -295.7083 
  37   2.0000     -10.864984      -295.6512 
  38   2.0000     -10.864961      -295.6506 
  39   2.0000     -10.864892      -295.6487 
  40   2.0000     -10.864891      -295.6487 
  41   2.0000     -10.861912      -295.5677 
  42   2.0000     -10.858877      -295.4851 
  43   2.0000     -10.858388      -295.4717 
  44   2.0000     -10.857231      -295.4403 
  45   2.0000     -10.856927      -295.4320 
  46   2.0000     -10.856886      -295.4309 
  47   2.0000     -10.854582      -295.3682 
  48   2.0000     -10.853953      -295.3511 
  49   2.0000     -10.852122      -295.3013 
  50   2.0000     -10.850434      -295.2553 
  51   2.0000     -10.839617      -294.9610 
  52   2.0000      -7.286868      -198.2858 
  53   2.0000      -7.283138      -198.1843 
  54   2.0000      -1.248332       -33.9688 
  55   2.0000      -1.246308       -33.9138 
  56   2.0000      -1.107488       -30.1363 
  57   2.0000      -1.102395       -29.9977 
  58   2.0000      -1.098835       -29.9008 
  59   2.0000      -1.089169       -29.6378 
  60   2.0000      -1.082230       -29.4490 
  61   2.0000      -1.078224       -29.3400 
  62   2.0000      -1.074572       -29.2406 
  63   2.0000      -1.012938       -27.5634 
  64   2.0000      -1.010357       -27.4932 
  65   2.0000      -1.008077       -27.4312 
  66   2.0000      -1.006453       -27.3870 
  67   2.0000      -0.997802       -27.1516 
  68   2.0000      -0.994908       -27.0728 
  69   2.0000      -0.979037       -26.6410 
  70   2.0000      -0.970457       -26.4075 
  71   2.0000      -0.968914       -26.3655 
  72   2.0000      -0.966387       -26.2967 
  73   2.0000      -0.965599       -26.2753 
  74   2.0000      -0.956673       -26.0324 
  75   2.0000      -0.926870       -25.2214 
  76   2.0000      -0.925767       -25.1914 
  77   2.0000      -0.903079       -24.5740 
  78   2.0000      -0.902385       -24.5552 
  79   2.0000      -0.896674       -24.3997 
  80   2.0000      -0.888720       -24.1833 
  81   2.0000      -0.886310       -24.1177 
  82   2.0000      -0.872261       -23.7354 
  83   2.0000      -0.871750       -23.7215 
  84   2.0000      -0.863590       -23.4995 
  85   2.0000      -0.836632       -22.7659 
  86   2.0000      -0.820114       -22.3164 
  87   2.0000      -0.811925       -22.0936 
  88   2.0000      -0.801473       -21.8092 
  89   2.0000      -0.787742       -21.4355 
  90   2.0000      -0.785386       -21.3714 
  91   2.0000      -0.781546       -21.2670 
  92   2.0000      -0.773113       -21.0375 
  93   2.0000      -0.757556       -20.6141 
  94   2.0000      -0.755782       -20.5659 
  95   2.0000      -0.744310       -20.2537 
  96   2.0000      -0.740229       -20.1427 
  97   2.0000      -0.738751       -20.1024 
  98   2.0000      -0.731089       -19.8939 
  99   2.0000      -0.701277       -19.0827 
 100   2.0000      -0.700217       -19.0539 
 101   2.0000      -0.680755       -18.5243 
 102   2.0000      -0.675390       -18.3783 
 103   2.0000      -0.670972       -18.2581 
 104   2.0000      -0.662801       -18.0357 
 105   2.0000      -0.653100       -17.7717 
 106   2.0000      -0.641826       -17.4650 
 107   2.0000      -0.633601       -17.2412 
 108   2.0000      -0.631963       -17.1966 
 109   2.0000      -0.628143       -17.0926 
 110   2.0000      -0.621375       -16.9085 
 111   2.0000      -0.619076       -16.8459 
 112   2.0000      -0.609649       -16.5894 
 113   2.0000      -0.605953       -16.4888 
 114   2.0000      -0.600971       -16.3532 
 115   2.0000      -0.597890       -16.2694 
 116   2.0000      -0.592579       -16.1249 
 117   2.0000      -0.588333       -16.0093 
 118   2.0000      -0.584076       -15.8935 
 119   2.0000      -0.581565       -15.8252 
 120   2.0000      -0.576983       -15.7005 
 121   2.0000      -0.574058       -15.6209 
 122   2.0000      -0.569943       -15.5089 
 123   2.0000      -0.567763       -15.4496 
 124   2.0000      -0.566624       -15.4186 
 125   2.0000      -0.564362       -15.3571 
 126   2.0000      -0.563738       -15.3401 
 127   2.0000      -0.562981       -15.3195 
 128   2.0000      -0.561286       -15.2734 
 129   2.0000      -0.559203       -15.2167 
 130   2.0000      -0.558461       -15.1965 
 131   2.0000      -0.554188       -15.0802 
 132   2.0000      -0.550300       -14.9744 
 133   2.0000      -0.549348       -14.9485 
 134   2.0000      -0.547097       -14.8873 
 135   2.0000      -0.544383       -14.8134 
 136   2.0000      -0.543371       -14.7859 
 137   2.0000      -0.540202       -14.6996 
 138   2.0000      -0.535392       -14.5688 
 139   2.0000      -0.531864       -14.4727 
 140   2.0000      -0.530441       -14.4340 
 141   2.0000      -0.527054       -14.3419 
 142   2.0000      -0.524176       -14.2635 
 143   2.0000      -0.522781       -14.2256 
 144   2.0000      -0.519240       -14.1292 
 145   2.0000      -0.517574       -14.0839 
 146   2.0000      -0.511050       -13.9064 
 147   2.0000      -0.506679       -13.7874 
 148   2.0000      -0.504974       -13.7410 
 149   2.0000      -0.498424       -13.5628 
 150   2.0000      -0.498161       -13.5557 
 151   2.0000      -0.497400       -13.5349 
 152   2.0000      -0.492085       -13.3903 
 153   2.0000      -0.488472       -13.2920 
 154   2.0000      -0.485224       -13.2036 
 155   2.0000      -0.482325       -13.1247 
 156   2.0000      -0.481733       -13.1086 
 157   2.0000      -0.480065       -13.0632 
 158   2.0000      -0.474107       -12.9011 
 159   2.0000      -0.470775       -12.8104 
 160   2.0000      -0.464997       -12.6532 
 161   2.0000      -0.463404       -12.6099 
 162   2.0000      -0.453802       -12.3486 
 163   2.0000      -0.452752       -12.3200 
 164   2.0000      -0.447338       -12.1727 
 165   2.0000      -0.445789       -12.1305 
 166   2.0000      -0.441963       -12.0264 
 167   2.0000      -0.435353       -11.8466 
 168   2.0000      -0.426753       -11.6125 
[...]
   183a -> 186a  :     0.553548 (c= -0.74400787)
   183a -> 196a  :     0.041554 (c=  0.20384713)

STATE  9:  E=   0.139178 au      3.787 eV    30546.0 cm**-1 <S**2> =   2.000000
   171a -> 184a  :     0.025713 (c= -0.16035330)
   172a -> 185a  :     0.037203 (c= -0.19288001)
   172a -> 195a  :     0.017215 (c= -0.13120483)
   173a -> 184a  :     0.067852 (c= -0.26048477)
   173a -> 187a  :     0.038545 (c=  0.19632995)
   173a -> 190a  :     0.082510 (c=  0.28724572)
   175a -> 184a  :     0.036878 (c=  0.19203739)
   176a -> 184a  :     0.029483 (c=  0.17170674)
   177a -> 184a  :     0.038198 (c= -0.19544395)
   178a -> 185a  :     0.019144 (c=  0.13836114)
   182a -> 185a  :     0.451405 (c=  0.67186675)
   182a -> 195a  :     0.025334 (c=  0.15916695)

STATE 10:  E=   0.145446 au      3.958 eV    31921.8 cm**-1 <S**2> =   2.000000
   172a -> 184a  :     0.102229 (c= -0.31973268)
   172a -> 187a  :     0.023581 (c=  0.15356210)
   173a -> 185a  :     0.100802 (c= -0.31749261)
   173a -> 195a  :     0.026088 (c= -0.16151829)
   176a -> 184a  :     0.018513 (c= -0.13606330)
   178a -> 184a  :     0.329024 (c=  0.57360651)
   182a -> 184a  :     0.027655 (c=  0.16629896)
   182a -> 187a  :     0.012371 (c= -0.11122673)
   182a -> 190a  :     0.209304 (c= -0.45749737)
   182a -> 192a  :     0.016641 (c=  0.12900025)


------------------------------------------
NATURAL TRANSITION ORBITALS FOR STATE    1
------------------------------------------

Making the (pseudo)densities                       ... done
Solving eigenvalue problem for the occupied space  ... done
Solving eigenvalue problem for the virtual space   ... done
Natural Transition Orbitals were saved in ADBNA_Me_Mes_MesCz.s1.nto
Threshold for printing occupation numbers 0.001000

 E=   0.116433 au      3.168 eV    25554.1 cm**-1
   183a -> 184a  : n=  0.90102172
   182a -> 185a  : n=  0.03295252
   181a -> 186a  : n=  0.02094535
   180a -> 187a  : n=  0.01724413
   179a -> 188a  : n=  0.00827805
   178a -> 189a  : n=  0.00512305
   177a -> 190a  : n=  0.00387400
   176a -> 191a  : n=  0.00191689


------------------------------------------
NATURAL TRANSITION ORBITALS FOR STATE    2
------------------------------------------

Making the (pseudo)densities                       ... done
Solving eigenvalue problem for the occupied space  ... done
Solving eigenvalue problem for the virtual space   ... done
Natural Transition Orbitals were saved in ADBNA_Me_Mes_MesCz.s2.nto
Threshold for printing occupation numbers 0.001000

 E=   0.158179 au      4.304 eV    34716.4 cm**-1
   183a -> 184a  : n=  0.70834206
   182a -> 185a  : n=  0.16101375
   181a -> 186a  : n=  0.08143783
   180a -> 187a  : n=  0.01590616
   179a -> 188a  : n=  0.01465788
   178a -> 189a  : n=  0.00761124
   177a -> 190a  : n=  0.00144042


------------------------------------------
NATURAL TRANSITION ORBITALS FOR STATE    3
------------------------------------------

Making the (pseudo)densities                       ... done
Solving eigenvalue problem for the occupied space  ... done
Solving eigenvalue problem for the virtual space   ... done
Natural Transition Orbitals were saved in ADBNA_Me_Mes_MesCz.s3.nto
Threshold for printing occupation numbers 0.001000

 E=   0.155545 au      4.233 eV    34138.2 cm**-1
   183a -> 184a  : n=  0.57908902
   182a -> 185a  : n=  0.27547815
   181a -> 186a  : n=  0.03802967
   180a -> 187a  : n=  0.03450092
   179a -> 188a  : n=  0.02919113
   178a -> 189a  : n=  0.01124794
   177a -> 190a  : n=  0.00968940
   176a -> 191a  : n=  0.00656794
   175a -> 192a  : n=  0.00376904
   174a -> 193a  : n=  0.00119314
   173a -> 194a  : n=  0.00113796


------------------------------------------
NATURAL TRANSITION ORBITALS FOR STATE    4
------------------------------------------

Making the (pseudo)densities                       ... done
Solving eigenvalue problem for the occupied space  ... done
Solving eigenvalue problem for the virtual space   ... done
Natural Transition Orbitals were saved in ADBNA_Me_Mes_MesCz.s4.nto
Threshold for printing occupation numbers 0.001000

 E=   0.157882 au      4.296 eV    34651.0 cm**-1
   183a -> 184a  : n=  0.73547492
   182a -> 185a  : n=  0.15132338
   181a -> 186a  : n=  0.03130221
   180a -> 187a  : n=  0.02463303
   179a -> 188a  : n=  0.02418210
   178a -> 189a  : n=  0.02180198
   177a -> 190a  : n=  0.00215022
   176a -> 191a  : n=  0.00118406


------------------------------------------
NATURAL TRANSITION ORBITALS FOR STATE    5
------------------------------------------

Making the (pseudo)densities                       ... done
Solving eigenvalue problem for the occupied space  ... done
Solving eigenvalue problem for the virtual space   ... done
Natural Transition Orbitals were saved in ADBNA_Me_Mes_MesCz.s5.nto
Threshold for printing occupation numbers 0.001000

 E=   0.148863 au      4.051 eV    32671.7 cm**-1
   183a -> 184a  : n=  0.77679424
   182a -> 185a  : n=  0.18773911
   181a -> 186a  : n=  0.00914943
   180a -> 187a  : n=  0.00688909
   179a -> 188a  : n=  0.00563894
   178a -> 189a  : n=  0.00356427
   177a -> 190a  : n=  0.00309083
   176a -> 191a  : n=  0.00245400


------------------------------------------
NATURAL TRANSITION ORBITALS FOR STATE    6
------------------------------------------

Making the (pseudo)densities                       ... done
Solving eigenvalue problem for the occupied space  ... done
Solving eigenvalue problem for the virtual space   ... done
Natural Transition Orbitals were saved in ADBNA_Me_Mes_MesCz.s6.nto
Threshold for printing occupation numbers 0.001000

 E=   0.159454 au      4.339 eV    34996.2 cm**-1
   183a -> 184a  : n=  0.53278030
   182a -> 185a  : n=  0.31025504
   181a -> 186a  : n=  0.06781447
   180a -> 187a  : n=  0.03233186
   179a -> 188a  : n=  0.02284103
   178a -> 189a  : n=  0.01315232
   177a -> 190a  : n=  0.00848087
   176a -> 191a  : n=  0.00244592
   175a -> 192a  : n=  0.00159074
   174a -> 193a  : n=  0.00100823


------------------------------------------
NATURAL TRANSITION ORBITALS FOR STATE    7
------------------------------------------

Making the (pseudo)densities                       ... done
Solving eigenvalue problem for the occupied space  ... done
Solving eigenvalue problem for the virtual space   ... done
Natural Transition Orbitals were saved in ADBNA_Me_Mes_MesCz.s7.nto
Threshold for printing occupation numbers 0.001000

 E=   0.159359 au      4.336 eV    34975.3 cm**-1
   183a -> 184a  : n=  0.65931185
   182a -> 185a  : n=  0.17130798
   181a -> 186a  : n=  0.12049489
   180a -> 187a  : n=  0.01398039
   179a -> 188a  : n=  0.00917978
   178a -> 189a  : n=  0.00720430
   177a -> 190a  : n=  0.00568325
   176a -> 191a  : n=  0.00393208
   175a -> 192a  : n=  0.00194536


------------------------------------------
NATURAL TRANSITION ORBITALS FOR STATE    8
------------------------------------------

Making the (pseudo)densities                       ... done
Solving eigenvalue problem for the occupied space  ... done
Solving eigenvalue problem for the virtual space   ... done
Natural Transition Orbitals were saved in ADBNA_Me_Mes_MesCz.s8.nto
Threshold for printing occupation numbers 0.001000

 E=   0.185174 au      5.039 eV    40641.1 cm**-1
   183a -> 184a  : n=  0.75471772
   182a -> 185a  : n=  0.17807249
   181a -> 186a  : n=  0.03235563
   180a -> 187a  : n=  0.02026930
   179a -> 188a  : n=  0.00201617
   178a -> 189a  : n=  0.00141211
   177a -> 190a  : n=  0.00116535
   176a -> 191a  : n=  0.00113223
   175a -> 192a  : n=  0.00106996


------------------------------------------
NATURAL TRANSITION ORBITALS FOR STATE    9
------------------------------------------

Making the (pseudo)densities                       ... done
Solving eigenvalue problem for the occupied space  ... done
Solving eigenvalue problem for the virtual space   ... done
Natural Transition Orbitals were saved in ADBNA_Me_Mes_MesCz.s9.nto
Threshold for printing occupation numbers 0.001000

 E=   0.180502 au      4.912 eV    39615.7 cm**-1
   183a -> 184a  : n=  0.60142062
   182a -> 185a  : n=  0.20219678
   181a -> 186a  : n=  0.09100747
   180a -> 187a  : n=  0.04460615
   179a -> 188a  : n=  0.02132780
   178a -> 189a  : n=  0.01462868
   177a -> 190a  : n=  0.01030612
   176a -> 191a  : n=  0.00239191
   175a -> 192a  : n=  0.00101486


------------------------------------------
NATURAL TRANSITION ORBITALS FOR STATE   10
------------------------------------------

Making the (pseudo)densities                       ... done
Solving eigenvalue problem for the occupied space  ... done
Solving eigenvalue problem for the virtual space   ... done
Natural Transition Orbitals were saved in ADBNA_Me_Mes_MesCz.s10.nto
Threshold for printing occupation numbers 0.001000

 E=   0.185247 au      5.041 eV    40657.0 cm**-1
   183a -> 184a  : n=  0.85017534
   182a -> 185a  : n=  0.04744801
   181a -> 186a  : n=  0.02592273
   180a -> 187a  : n=  0.02036467
   179a -> 188a  : n=  0.01229529
   178a -> 189a  : n=  0.01096914
   177a -> 190a  : n=  0.00999541
   176a -> 191a  : n=  0.00382666
   175a -> 192a  : n=  0.00264250
   174a -> 193a  : n=  0.00250359
   173a -> 194a  : n=  0.00162047
   172a -> 195a  : n=  0.00151168
   171a -> 196a  : n=  0.00139939
   170a -> 197a  : n=  0.00100886


-----------------------------
TD-DFT/TDA-EXCITATION SPECTRA
-----------------------------

Center of mass = (-10.9393, 10.8385,  2.2226)
Calculating the Dipole integrals                  ... done
Transforming integrals                            ... done
Calculating the Linear Momentum integrals         ... done
Transforming integrals                            ... done
Calculating angular momentum integrals            ... done
Transforming integrals                            ... done

-----------------------------------------------------------------------------
         ABSORPTION SPECTRUM VIA TRANSITION ELECTRIC DIPOLE MOMENTS
-----------------------------------------------------------------------------
State   Energy    Wavelength  fosc         T2        TX        TY        TZ  
        (cm-1)      (nm)                 (au**2)    (au)      (au)      (au) 
-----------------------------------------------------------------------------
   1   25554.1    391.3   0.476252002   6.13553  -2.14818   1.19108  -0.31964
   2   34716.4    288.0   0.006754590   0.06405  -0.19424   0.10876  -0.12040
   3   34138.2    292.9   0.008155436   0.07865   0.23264   0.02666  -0.15431
   4   34651.0    288.6   0.064562899   0.61340  -0.70361   0.23923   0.24720
   5   32671.7    306.1   0.000564728   0.00569   0.03980  -0.05551   0.03202
   6   34996.2    285.7   0.078715283   0.74048   0.50306   0.37604  -0.58823
   7   34975.3    285.9   0.020039542   0.18863  -0.06611  -0.31738   0.28901
   8   40641.1    246.1   0.191771334   1.55344  -0.31663  -1.18740   0.20799
   9   39615.7    252.4   0.099892480   0.83012   0.85371  -0.25942   0.18439
  10   40657.0    246.0   0.440681803   3.56833  -1.66448   0.49710   0.74212
  11   23314.7    428.9   spin forbidden (mult=3)
  12   29234.9    342.1   spin forbidden (mult=3)
  13   30143.9    331.7   spin forbidden (mult=3)
  14   30227.3    330.8   spin forbidden (mult=3)
  15   32325.1    309.4   spin forbidden (mult=3)
  16   33369.2    299.7   spin forbidden (mult=3)
  17   32348.7    309.1   spin forbidden (mult=3)
  18   31402.9    318.4   spin forbidden (mult=3)
  19   30546.0    327.4   spin forbidden (mult=3)
  20   31921.8    313.3   spin forbidden (mult=3)

-----------------------------------------------------------------------------
         ABSORPTION SPECTRUM VIA TRANSITION VELOCITY DIPOLE MOMENTS
-----------------------------------------------------------------------------
State   Energy    Wavelength   fosc        P2         PX        PY        PZ  
        (cm-1)      (nm)                 (au**2)     (au)      (au)      (au) 
-----------------------------------------------------------------------------
   1   25554.1    391.3   0.166571274   0.02909   0.15451  -0.06947   0.01978
   2   34716.4    288.0   0.001722601   0.00041   0.00357  -0.01713  -0.01012
   3   34138.2    292.9   0.005222691   0.00122  -0.02393  -0.01197   0.02242
   4   34651.0    288.6   0.000722397   0.00017   0.00961  -0.00829   0.00316
   5   32671.7    306.1   0.000067514   0.00002   0.00326  -0.00156   0.00143
   6   34996.2    285.7   0.003494279   0.00084  -0.02131   0.01927   0.00317
   7   34975.3    285.9   0.004061335   0.00097  -0.02632  -0.00390   0.01622
   8   40641.1    246.1   0.012800570   0.00356   0.01397   0.05736  -0.00840
   9   39615.7    252.4   0.139038793   0.03765  -0.17002   0.09322  -0.00704
  10   40657.0    246.0   0.378369926   0.10514   0.29155  -0.09422  -0.10612
  11   23314.7    428.9   spin forbidden (mult=3)
  12   29234.9    342.1   spin forbidden (mult=3)
  13   30143.9    331.7   spin forbidden (mult=3)
  14   30227.3    330.8   spin forbidden (mult=3)
  15   32325.1    309.4   spin forbidden (mult=3)
  16   33369.2    299.7   spin forbidden (mult=3)
  17   32348.7    309.1   spin forbidden (mult=3)
  18   31402.9    318.4   spin forbidden (mult=3)
  19   30546.0    327.4   spin forbidden (mult=3)
  20   31921.8    313.3   spin forbidden (mult=3)

-------------------------------------------------------------------
                             CD SPECTRUM
-------------------------------------------------------------------
State  Energy     Wavelength     R         MX        MY        MZ   
       (cm-1)       (nm)     (1e40*cgs)   (au)      (au)      (au)  
-------------------------------------------------------------------
   1   25554.1    391.3    -58.81959  -0.08042  -0.29121  -0.15435
   2   34716.4    288.0    -28.62358   0.24965   0.59365   0.63781
   3   34138.2    292.9     -0.57709  -0.00174  -0.01796   0.00221
   4   34651.0    288.6    -13.46789   0.02504  -0.03149  -0.01382
   5   32671.7    306.1      2.07560   0.03918  -0.03751   0.02377
   6   34996.2    285.7     50.08471   0.06211   0.05055  -0.09517
   7   34975.3    285.9      3.79355   0.01127  -0.01978   0.00870
   8   40641.1    246.1      7.28851  -0.21879  -0.07995  -0.71519
   9   39615.7    252.4     66.66974   0.15066  -0.12155  -0.10163
  10   40657.0    246.0     93.44559  -0.20189  -0.19340  -0.05618
  11   23314.7    428.9 spin forbidden
  12   29234.9    342.1 spin forbidden
  13   30143.9    331.7 spin forbidden
  14   30227.3    330.8 spin forbidden
  15   32325.1    309.4 spin forbidden
  16   33369.2    299.7 spin forbidden
  17   32348.7    309.1 spin forbidden
  18   31402.9    318.4 spin forbidden
  19   30546.0    327.4 spin forbidden
  20   31921.8    313.3 spin forbidden

-------------------------------------------------------------------
         CD SPECTRUM VIA TRANSITION VELOCITY DIPOLE MOMENTS        
-------------------------------------------------------------------
State  Energy     Wavelength     R         MX        MY        MZ   
       (cm-1)       (nm)     (1e40*cgs)   (au)      (au)      (au)  
-------------------------------------------------------------------
   1   25554.1    391.3     19.24353  -0.08042  -0.29121  -0.15435
   2   34716.4    288.0    -46.89492   0.24965   0.59365   0.63781
   3   34138.2    292.9      0.92794  -0.00174  -0.01796   0.00221
   4   34651.0    288.6      1.36744   0.02504  -0.03149  -0.01382
   5   32671.7    306.1      0.69689   0.03918  -0.03751   0.02377
   6   34996.2    285.7     -1.92659   0.06211   0.05055  -0.09517
   7   34975.3    285.9     -0.23198   0.01127  -0.01978   0.00870
   8   40641.1    246.1     -4.16513  -0.21879  -0.07995  -0.71519
   9   39615.7    252.4    -94.62978   0.15066  -0.12155  -0.10163
  10   40657.0    246.0    -88.25041  -0.20189  -0.19340  -0.05618
  11   23314.7    428.9 spin forbidden
  12   29234.9    342.1 spin forbidden
  13   30143.9    331.7 spin forbidden
  14   30227.3    330.8 spin forbidden
  15   32325.1    309.4 spin forbidden
  16   33369.2    299.7 spin forbidden
  17   32348.7    309.1 spin forbidden
  18   31402.9    318.4 spin forbidden
  19   30546.0    327.4 spin forbidden
  20   31921.8    313.3 spin forbidden

Total run time:   188005.226 sec

           *** ORCA-CIS/TD-DFT FINISHED WITHOUT ERROR ***

Maximum memory used throughout the entire CIS-calculation: 3102.7 MB

-----------------------
CIS/TD-DFT TOTAL ENERGY
-----------------------

    E(SCF)  =  -2085.286173176 Eh
    DE(CIS) =      0.106229776 Eh (Triplet root  1)
    ----------------------------- ---------
    E(tot)  =  -2085.179943401 Eh


-------------------------   --------------------
FINAL SINGLE POINT ENERGY     -2085.179943400643
-------------------------   --------------------


                            ***************************************
                            *     ORCA property calculations      *
                            ***************************************


  WARNING: The energy has been calculated at the MP2 level but the densities
           used in the property calculations are still SCF densities
           MP2 response densities have not been calculated 
           use %mp2 Density relaxed end
           or  %mp2 Density unrelaxed end

                                    ---------------------
                                    Active property flags
                                    ---------------------
   (+) Dipole Moment


------------------------------------------------------------------------------
                       ORCA ELECTRIC PROPERTIES CALCULATION
------------------------------------------------------------------------------

Dipole Moment Calculation                       ... on
Quadrupole Moment Calculation                   ... off
Polarizability Calculation                      ... off
GBWName                                         ... ADBNA_Me_Mes_MesCz.gbw
Electron density                                ... ADBNA_Me_Mes_MesCz.scfp
The origin for moment calculation is the CENTER OF MASS  = (-10.939291, 10.838477  2.222644)

-------------
DIPOLE MOMENT
-------------
                                X             Y             Z
Electronic contribution:     26.13190     -16.36638      -0.45574
Nuclear contribution   :    -27.37054      16.36288       1.16946
                        -----------------------------------------
Total Dipole Moment    :     -1.23864      -0.00350       0.71372
                        -----------------------------------------
Magnitude (a.u.)       :      1.42955
Magnitude (Debye)      :      3.63364



--------------------
Rotational spectrum 
--------------------
 
Rotational constants in cm-1:     0.003221     0.000796     0.000696 
Rotational constants in MHz :    96.572561    23.868415    20.877184 

 Dipole components along the rotational axes: 
x,y,z [a.u.] :    -1.188706     0.785462     0.116853 
x,y,z [Debye]:    -3.021450     1.996485     0.297016 

 
--------------------------------------------------------------------------
WARNING: There was an error initializing an OpenFabrics device.

  Local host:   kennedy140
  Local device: mlx5_0
--------------------------------------------------------------------------
[kennedy140:130431] 7 more processes have sent help message help-mpi-btl-openib.txt / error in device init
[kennedy140:130431] Set MCA parameter "orte_base_help_aggregate" to 0 to see all help / error messages

Timings for individual modules:

Sum of individual times         ...   218227.364 sec (=3637.123 min)
GTO integral calculation        ...       31.734 sec (=   0.529 min)   0.0 %
SCF iterations                  ...     2532.475 sec (=  42.208 min)   1.2 %
MP2 module                      ...    27626.272 sec (= 460.438 min)  12.7 %
CIS module                      ...   188036.883 sec (=3133.948 min)  86.2 %
                             ****ORCA TERMINATED NORMALLY****
TOTAL RUN TIME: 2 days 12 hours 37 minutes 53 seconds 871 msec
