
                                 *****************
                                 * O   R   C   A *
                                 *****************

                                            #,                                       
                                            ###                                      
                                            ####                                     
                                            #####                                    
                                            ######                                   
                                           ########,                                 
                                     ,,################,,,,,                         
                               ,,#################################,,                 
                          ,,##########################################,,             
                       ,#########################################, ''#####,          
                    ,#############################################,,   '####,        
                  ,##################################################,,,,####,       
                ,###########''''           ''''###############################       
              ,#####''   ,,,,##########,,,,          '''####'''          '####       
            ,##' ,,,,###########################,,,                        '##       
           ' ,,###''''                  '''############,,,                           
         ,,##''                                '''############,,,,        ,,,,,,###''
      ,#''                                            '''#######################'''  
     '                                                          ''''####''''         
             ,#######,   #######,   ,#######,      ##                                
            ,#'     '#,  ##    ##  ,#'     '#,    #''#        ######   ,####,        
            ##       ##  ##   ,#'  ##            #'  '#       #        #'  '#        
            ##       ##  #######   ##           ,######,      #####,   #    #        
            '#,     ,#'  ##    ##  '#,     ,#' ,#      #,         ##   #,  ,#        
             '#######'   ##     ##  '#######'  #'      '#     #####' # '####'        



                  #######################################################
                  #                        -***-                        #
                  #          Department of theory and spectroscopy      #
                  #    Directorship and core code : Frank Neese         #
                  #        Max Planck Institute fuer Kohlenforschung    #
                  #                Kaiser Wilhelm Platz 1               #
                  #                 D-45470 Muelheim/Ruhr               #
                  #                      Germany                        #
                  #                                                     #
                  #                  All rights reserved                #
                  #                        -***-                        #
                  #######################################################


                         Program Version 5.0.3 -  RELEASE  -


 With contributions from (in alphabetic order):
   Daniel Aravena         : Magnetic Suceptibility
   Michael Atanasov       : Ab Initio Ligand Field Theory (pilot matlab implementation)
   Alexander A. Auer      : GIAO ZORA, VPT2 properties, NMR spectrum
   Ute Becker             : Parallelization
   Giovanni Bistoni       : ED, misc. LED, open-shell LED, HFLD
   Martin Brehm           : Molecular dynamics
   Dmytro Bykov           : SCF Hessian
   Vijay G. Chilkuri      : MRCI spin determinant printing, contributions to CSF-ICE
   Dipayan Datta          : RHF DLPNO-CCSD density
   Achintya Kumar Dutta   : EOM-CC, STEOM-CC
   Dmitry Ganyushin       : Spin-Orbit,Spin-Spin,Magnetic field MRCI
   Miquel Garcia          : C-PCM and meta-GGA Hessian, CC/C-PCM, Gaussian charge scheme
   Yang Guo               : DLPNO-NEVPT2, F12-NEVPT2, CIM, IAO-localization
   Andreas Hansen         : Spin unrestricted coupled pair/coupled cluster methods
   Benjamin Helmich-Paris : MC-RPA, TRAH-SCF, COSX integrals
   Lee Huntington         : MR-EOM, pCC
   Robert Izsak           : Overlap fitted RIJCOSX, COSX-SCS-MP3, EOM
   Marcus Kettner         : VPT2
   Christian Kollmar      : KDIIS, OOCD, Brueckner-CCSD(T), CCSD density, CASPT2, CASPT2-K
   Simone Kossmann        : Meta GGA functionals, TD-DFT gradient, OOMP2, MP2 Hessian
   Martin Krupicka        : Initial AUTO-CI
   Lucas Lang             : DCDCAS
   Marvin Lechner         : AUTO-CI (C++ implementation), FIC-MRCC
   Dagmar Lenk            : GEPOL surface, SMD
   Dimitrios Liakos       : Extrapolation schemes; Compound Job, initial MDCI parallelization
   Dimitrios Manganas     : Further ROCIS development; embedding schemes
   Dimitrios Pantazis     : SARC Basis sets
   Anastasios Papadopoulos: AUTO-CI, single reference methods and gradients
   Taras Petrenko         : DFT Hessian,TD-DFT gradient, ASA, ECA, R-Raman, ABS, FL, XAS/XES, NRVS
   Peter Pinski           : DLPNO-MP2, DLPNO-MP2 Gradient
   Christoph Reimann      : Effective Core Potentials
   Marius Retegan         : Local ZFS, SOC
   Christoph Riplinger    : Optimizer, TS searches, QM/MM, DLPNO-CCSD(T), (RO)-DLPNO pert. Triples
   Tobias Risthaus        : Range-separated hybrids, TD-DFT gradient, RPA, STAB
   Michael Roemelt        : Original ROCIS implementation
   Masaaki Saitow         : Open-shell DLPNO-CCSD energy and density
   Barbara Sandhoefer     : DKH picture change effects
   Avijit Sen             : IP-ROCIS
   Kantharuban Sivalingam : CASSCF convergence, NEVPT2, FIC-MRCI
   Bernardo de Souza      : ESD, SOC TD-DFT
   Georgi Stoychev        : AutoAux, RI-MP2 NMR, DLPNO-MP2 response
   Willem Van den Heuvel  : Paramagnetic NMR
   Boris Wezisla          : Elementary symmetry handling
   Frank Wennmohs         : Technical directorship


 We gratefully acknowledge several colleagues who have allowed us to
 interface, adapt or use parts of their codes:
   Stefan Grimme, W. Hujo, H. Kruse, P. Pracht,  : VdW corrections, initial TS optimization,
                  C. Bannwarth, S. Ehlert          DFT functionals, gCP, sTDA/sTD-DF
   Ed Valeev, F. Pavosevic, A. Kumar             : LibInt (2-el integral package), F12 methods
   Garnet Chan, S. Sharma, J. Yang, R. Olivares  : DMRG
   Ulf Ekstrom                                   : XCFun DFT Library
   Mihaly Kallay                                 : mrcc  (arbitrary order and MRCC methods)
   Jiri Pittner, Ondrej Demel                    : Mk-CCSD
   Frank Weinhold                                : gennbo (NPA and NBO analysis)
   Christopher J. Cramer and Donald G. Truhlar   : smd solvation model
   Lars Goerigk                                  : TD-DFT with DH, B97 family of functionals
   V. Asgeirsson, H. Jonsson                     : NEB implementation
   FAccTs GmbH                                   : IRC, NEB, NEB-TS, DLPNO-Multilevel, CI-OPT
                                                   MM, QMMM, 2- and 3-layer-ONIOM, Crystal-QMMM,
                                                   LR-CPCM, SF, NACMEs, symmetry and pop. for TD-DFT,
                                                   nearIR, NL-DFT gradient (VV10), updates on ESD,
                                                   ML-optimized integration grids
   S Lehtola, MJT Oliveira, MAL Marques          : LibXC Library
   Liviu Ungur et al                             : ANISO software


 Your calculation uses the libint2 library for the computation of 2-el integrals
 For citations please refer to: http://libint.valeyev.net

 Your ORCA version has been built with support for libXC version: 5.1.0
 For citations please refer to: https://tddft.org/programs/libxc/

 This ORCA versions uses:
   CBLAS   interface :  Fast vector & matrix operations
   LAPACKE interface :  Fast linear algebra routines
   SCALAPACK package :  Parallel linear algebra routines
   Shared memory     :  Shared parallel matrices
   BLAS/LAPACK       :  OpenBLAS 0.3.15  USE64BITINT DYNAMIC_ARCH NO_AFFINITY Haswell SINGLE_THREADED
        Core in use  :  Haswell
   Copyright (c) 2011-2014, The OpenBLAS Project


================================================================================

----- Orbital basis set information -----
Your calculation utilizes the basis: 6-31G**
   H-He, Li-Ne : W. J. Hehre, R. Ditchfield and J.A. Pople, J. Chem. Phys. 56, 2257 (1972).
                 Note: He and Ne are unpublished basis sets taken from the Gaussian program.
                 Note: Li and B from J. D. Dill and J. A. Pople, J. Chem. Phys. 62, 2921 (1975).
   Na - Ar     : M. M. Francl, W. J. Pietro, W. J. Hehre, J. S. Binkley, M. S. Gordon, 
                 D. J. DeFrees and J. A. Pople, J. Chem. Phys. 77, 3654 (1982).
   K - Zn      : V. A. Rassolov, J. A. Pople, M. A. Ratner, and T. L. Windus, J. Chem. Phys. 109, 1223 (1998).

================================================================================
                                        WARNINGS
                       Please study these warnings very carefully!
================================================================================

INFO   : Checking CIS options ...

WARNING: (CIS/TDDFT): Analytic excited state gradients requested
  ===> : turning on equilibrium dielectric conditions.

WARNING: Geometry Optimization
  ===> : Switching off AutoStart
         For restart on a previous wavefunction, please use MOREAD

WARNING: CIS/ROCIS methods need fully converged wavefunctions
  ===> : Setting SCFConvForced true
         You can overwrite this default with %scf ConvForced false 


INFO   : the flag for use of the SHARK integral package has been found!

================================================================================
                                       INPUT FILE
================================================================================
NAME = Benzene.inp
|  1> ! PBE0 NOCOSX NORI 6-31G** TightSCF OPT CPCM
|  2> %Pal NProcs 16 end
|  3> %MaxCore 2000
|  4> %SCF
|  5>     AutoTRAH    True
|  6>     CNVDamp     False
|  7>     CNVZerner   False
|  8>     end
|  9> %cis 
| 10>     NRoots      10
| 11>     Triplets    false
| 12>     TDA         true
| 13>     IRoot       1
| 14>     DoSOC       false
| 15>     DoNTO       True
| 16>     end
| 17> %cpcm
| 18>     epsilon     2.3741
| 19>     refrac      1.497
| 20>     fepstype    CPCM
| 21>     end
| 22> *xyz 0 1
| 23> C             1.38175700    -0.22169400     0.00550500
| 24> C             0.50610300    -1.30613000    -0.00879600
| 25> C            -0.87083100    -1.08979300    -0.01383600
| 26> C            -1.37221100     0.21073900    -0.00450100
| 27> C            -0.49656000     1.29512600     0.00983900
| 28> C             0.88041100     1.07880700     0.01479200
| 29> H             2.45525100    -0.39028200     0.00941600
| 30> H             0.89692800    -2.32005100    -0.01597600
| 31> H            -1.55361700    -1.93508900    -0.02508900
| 32> H            -2.44572000     0.37922800    -0.00839700
| 33> H            -0.88733900     2.30906500     0.01719600
| 34> H             1.56317800     1.92411700     0.02585500
| 35> *
| 36> 
| 37> 
| 38>                          ****END OF INPUT****
================================================================================

                       *****************************
                       * Geometry Optimization Run *
                       *****************************

Geometry optimization settings:
Update method            Update   .... BFGS
Choice of coordinates    CoordSys .... Z-matrix Internals
Initial Hessian          InHess   .... Almoef's Model

Convergence Tolerances:
Energy Change            TolE     ....  5.0000e-06 Eh
Max. Gradient            TolMAXG  ....  3.0000e-04 Eh/bohr
RMS Gradient             TolRMSG  ....  1.0000e-04 Eh/bohr
Max. Displacement        TolMAXD  ....  4.0000e-03 bohr
RMS Displacement         TolRMSD  ....  2.0000e-03 bohr
Strict Convergence                ....  False
------------------------------------------------------------------------------
                        ORCA OPTIMIZATION COORDINATE SETUP
------------------------------------------------------------------------------

The optimization will be done in new redundant internal coordinates
Making redundant internal coordinates   ...  (new redundants) done
Evaluating the initial hessian          ...  (Almloef) done
Evaluating the coordinates              ...  done
Calculating the B-matrix                .... done
Calculating the G-matrix                .... done
Diagonalizing the G-matrix              .... done
The first mode is                       ....   24
The number of degrees of freedom        ....   30

    -----------------------------------------------------------------
                    Redundant Internal Coordinates


    -----------------------------------------------------------------
         Definition                    Initial Value    Approx d2E/dq
    -----------------------------------------------------------------
      1. B(C   1,C   0)                  1.3939         0.615894   
      2. B(C   2,C   1)                  1.3938         0.616057   
      3. B(C   3,C   2)                  1.3939         0.615994   
      4. B(C   4,C   3)                  1.3939         0.615983   
      5. B(C   5,C   4)                  1.3939         0.615981   
      6. B(C   5,C   0)                  1.3938         0.616088   
      7. B(H   6,C   0)                  1.0867         0.364548   
      8. B(H   7,C   1)                  1.0867         0.364545   
      9. B(H   8,C   2)                  1.0867         0.364534   
     10. B(H   9,C   3)                  1.0867         0.364548   
     11. B(H  10,C   4)                  1.0867         0.364543   
     12. B(H  11,C   5)                  1.0867         0.364538   
     13. A(C   1,C   0,C   5)          120.0003         0.433054   
     14. A(C   1,C   0,H   6)          119.9953         0.353245   
     15. A(C   5,C   0,H   6)          120.0044         0.353264   
     16. A(C   2,C   1,H   7)          120.0061         0.353261   
     17. A(C   0,C   1,C   2)          119.9914         0.433050   
     18. A(C   0,C   1,H   7)          120.0024         0.353245   
     19. A(C   3,C   2,H   8)          119.9900         0.353253   
     20. A(C   1,C   2,H   8)          120.0009         0.353259   
     21. A(C   1,C   2,C   3)          120.0091         0.433063   
     22. A(C   4,C   3,H   9)          120.0017         0.353254   
     23. A(C   2,C   3,H   9)          120.0000         0.353255   
     24. A(C   2,C   3,C   4)          119.9983         0.433054   
     25. A(C   3,C   4,H  10)          120.0040         0.353253   
     26. A(C   3,C   4,C   5)          119.9935         0.433052   
     27. A(C   5,C   4,H  10)          120.0025         0.353253   
     28. A(C   0,C   5,C   4)          120.0073         0.433065   
     29. A(C   4,C   5,H  11)          120.0006         0.353252   
     30. A(C   0,C   5,H  11)          119.9921         0.353263   
     31. D(H   7,C   1,C   0,C   5)   -179.9963         0.026227   
     32. D(H   7,C   1,C   0,H   6)      0.0035         0.026227   
     33. D(C   2,C   1,C   0,H   6)   -179.9988         0.026227   
     34. D(C   2,C   1,C   0,C   5)      0.0014         0.026227   
     35. D(H   8,C   2,C   1,C   0)    179.9936         0.026242   
     36. D(C   3,C   2,C   1,C   0)     -0.0036         0.026242   
     37. D(C   3,C   2,C   1,H   7)    179.9940         0.026242   
     38. D(H   8,C   2,C   1,H   7)     -0.0087         0.026242   
     39. D(H   9,C   3,C   2,H   8)      0.0048         0.026236   
     40. D(H   9,C   3,C   2,C   1)   -179.9979         0.026236   
     41. D(C   4,C   3,C   2,H   8)   -179.9955         0.026236   
     42. D(C   4,C   3,C   2,C   1)      0.0018         0.026236   
     43. D(H  10,C   4,C   3,C   2)   -179.9952         0.026235   
     44. D(C   5,C   4,C   3,H   9)   -179.9980         0.026235   
     45. D(C   5,C   4,C   3,C   2)      0.0024         0.026235   
     46. D(H  10,C   4,C   3,H   9)      0.0044         0.026235   
     47. D(H  11,C   5,C   4,H  10)     -0.0095         0.026235   
     48. D(C   0,C   5,C   4,H  10)    179.9929         0.026235   
     49. D(C   0,C   5,C   4,C   3)     -0.0047         0.026235   
     50. D(H  11,C   5,C   0,H   6)      0.0054         0.026245   
     51. D(H  11,C   5,C   0,C   1)   -179.9948         0.026245   
     52. D(H  11,C   5,C   4,C   3)    179.9929         0.026235   
     53. D(C   4,C   5,C   0,H   6)   -179.9970         0.026245   
     54. D(C   4,C   5,C   0,C   1)      0.0028         0.026245   
    -----------------------------------------------------------------

Number of atoms                         .... 12
Number of degrees of freedom            .... 54

         *************************************************************
         *                GEOMETRY OPTIMIZATION CYCLE   1            *
         *************************************************************
---------------------------------
CARTESIAN COORDINATES (ANGSTROEM)
---------------------------------
  C      1.381757   -0.221694    0.005505
  C      0.506103   -1.306130   -0.008796
  C     -0.870831   -1.089793   -0.013836
  C     -1.372211    0.210739   -0.004501
  C     -0.496560    1.295126    0.009839
  C      0.880411    1.078807    0.014792
  H      2.455251   -0.390282    0.009416
  H      0.896928   -2.320051   -0.015976
  H     -1.553617   -1.935089   -0.025089
  H     -2.445720    0.379228   -0.008397
  H     -0.887339    2.309065    0.017196
  H      1.563178    1.924117    0.025855

----------------------------
CARTESIAN COORDINATES (A.U.)
----------------------------
  NO LB      ZA    FRAG     MASS         X           Y           Z
   0 C     6.0000    0    12.011    2.611142   -0.418941    0.010403
   1 C     6.0000    0    12.011    0.956396   -2.468228   -0.016622
   2 C     6.0000    0    12.011   -1.645632   -2.059410   -0.026146
   3 C     6.0000    0    12.011   -2.593103    0.398239   -0.008506
   4 C     6.0000    0    12.011   -0.938362    2.447433    0.018593
   5 C     6.0000    0    12.011    1.663736    2.038650    0.027953
   6 H     1.0000    0     1.008    4.639752   -0.737526    0.017794
   7 H     1.0000    0     1.008    1.694948   -4.384261   -0.030190
   8 H     1.0000    0     1.008   -2.935911   -3.656788   -0.047411
   9 H     1.0000    0     1.008   -4.621741    0.716637   -0.015868
  10 H     1.0000    0     1.008   -1.676828    4.363500    0.032496
  11 H     1.0000    0     1.008    2.953978    3.636054    0.048859

--------------------------------
INTERNAL COORDINATES (ANGSTROEM)
--------------------------------
 C      0   0   0     0.000000000000     0.00000000     0.00000000
 C      1   0   0     1.393906698604     0.00000000     0.00000000
 C      2   1   0     1.393834401758   119.99144152     0.00000000
 C      3   2   1     1.393862450046   120.00907888     0.00000000
 C      4   3   2     1.393867093797   119.99831299     0.00000000
 C      1   2   3     1.393820975264   120.00030949     0.00000000
 H      1   2   3     1.086658445741   119.99528752   180.00115599
 H      2   1   3     1.086660723163   120.00243769   180.00232994
 H      3   2   1     1.086668615274   120.00092265   179.99363913
 H      4   3   2     1.086657855545   119.99996152   180.00212928
 H      5   4   3     1.086662159096   120.00395021   180.00478164
 H      6   1   2     1.086665616626   119.99205364   180.00520753

---------------------------
INTERNAL COORDINATES (A.U.)
---------------------------
 C      0   0   0     0.000000000000     0.00000000     0.00000000
 C      1   0   0     2.634101916600     0.00000000     0.00000000
 C      2   1   0     2.633965295361   119.99144152     0.00000000
 C      3   2   1     2.634018298944   120.00907888     0.00000000
 C      4   3   2     2.634027074361   119.99831299     0.00000000
 C      1   2   3     2.633939922964   120.00030949     0.00000000
 H      1   2   3     2.053486863564   119.99528752   180.00115599
 H      2   1   3     2.053491167268   120.00243769   180.00232994
 H      3   2   1     2.053506081195   120.00092265   179.99363913
 H      4   3   2     2.053485748255   119.99996152   180.00212928
 H      5   4   3     2.053493880787   120.00395021   180.00478164
 H      6   1   2     2.053500414573   119.99205364   180.00520753

---------------------
BASIS SET INFORMATION
---------------------
There are 2 groups of distinct atoms

 Group   1 Type C   : 10s4p1d contracted to 3s2p1d pattern {631/31/1}
 Group   2 Type H   : 4s1p contracted to 2s1p pattern {31/1}

Atom   0C    basis set group =>   1
Atom   1C    basis set group =>   1
Atom   2C    basis set group =>   1
Atom   3C    basis set group =>   1
Atom   4C    basis set group =>   1
Atom   5C    basis set group =>   1
Atom   6H    basis set group =>   2
Atom   7H    basis set group =>   2
Atom   8H    basis set group =>   2
Atom   9H    basis set group =>   2
Atom  10H    basis set group =>   2
Atom  11H    basis set group =>   2
--------------------------------------------------------------------------
WARNING: There was an error initializing an OpenFabrics device.

  Local host:   kennedy74
  Local device: mlx5_0
--------------------------------------------------------------------------


           ************************************************************
           *        Program running with 16 parallel MPI-processes    *
           *              working on a common directory               *
           ************************************************************
------------------------------------------------------------------------------
                           ORCA GTO INTEGRAL CALCULATION
------------------------------------------------------------------------------
------------------------------------------------------------------------------
                   ___                                                        
                  /   \      - P O W E R E D   B Y -                         
                 /     \                                                     
                 |  |  |   _    _      __       _____    __    __             
                 |  |  |  | |  | |    /  \     |  _  \  |  |  /  |          
                  \  \/   | |  | |   /    \    | | | |  |  | /  /          
                 / \  \   | |__| |  /  /\  \   | |_| |  |  |/  /          
                |  |  |   |  __  | /  /__\  \  |    /   |      \           
                |  |  |   | |  | | |   __   |  |    \   |  |\   \          
                \     /   | |  | | |  |  |  |  | |\  \  |  | \   \       
                 \___/    |_|  |_| |__|  |__|  |_| \__\ |__|  \__/        
                                                                              
                      - O R C A' S   B I G   F R I E N D -                    
                                      &                                       
                       - I N T E G R A L  F E E D E R -                       
                                                                              
 v1 FN, 2020, v2 2021                                                         
------------------------------------------------------------------------------


Reading SHARK input file Benzene.SHARKINP.tmp ... ok
----------------------
SHARK INTEGRAL PACKAGE
----------------------

Number of atoms                             ...     12
Number of basis functions                   ...    114
Number of shells                            ...     54
Maximum angular momentum                    ...      2
Integral batch strategy                     ... SHARK/LIBINT Hybrid
RI-J (if used) integral strategy            ... SPLIT-RIJ (Revised 2003 algorithm where possible)
Printlevel                                  ...      1
Contraction scheme used                     ... SEGMENTED contraction
Coulomb Range Separation                    ... NOT USED
Exchange Range Separation                   ... NOT USED
Finite Nucleus Model                        ... NOT USED
Auxiliary Coulomb fitting basis             ... NOT available
Auxiliary J/K fitting basis                 ... NOT available
Auxiliary Correlation fitting basis         ... NOT available
Auxiliary 'external' fitting basis          ... NOT available
Integral threshold                          ...     2.500000e-11
Primitive cut-off                           ...     2.500000e-12
Primitive pair pre-selection threshold      ...     2.500000e-12

Calculating pre-screening integrals         ... done (  0.0 sec) Dimension = 54
Organizing shell pair data                  ... done (  0.0 sec)
Shell pair information
Total number of shell pairs                 ...      1485
Shell pairs after pre-screening             ...      1434
Total number of primitive shell pairs       ...      7404
Primitive shell pairs kept                  ...      5313
          la=0 lb=0:    447 shell pairs
          la=1 lb=0:    516 shell pairs
          la=1 lb=1:    162 shell pairs
          la=2 lb=0:    180 shell pairs
          la=2 lb=1:    108 shell pairs
          la=2 lb=2:     21 shell pairs

Calculating one electron integrals          ... done (  0.0 sec)
Calculating Nuclear repulsion               ... done (  0.0 sec) ENN=    203.537734910110 Eh

SHARK setup successfully completed in   0.2 seconds

Maximum memory used throughout the entire GTOINT-calculation: 9.1 MB
[kennedy74:45585] 15 more processes have sent help message help-mpi-btl-openib.txt / error in device init
[kennedy74:45585] Set MCA parameter "orte_base_help_aggregate" to 0 to see all help / error messages
--------------------------------------------------------------------------
WARNING: There was an error initializing an OpenFabrics device.

  Local host:   kennedy74
  Local device: mlx5_0
--------------------------------------------------------------------------


           ************************************************************
           *        Program running with 16 parallel MPI-processes    *
           *              working on a common directory               *
           ************************************************************
-------------------------------------------------------------------------------
                                 ORCA SCF
-------------------------------------------------------------------------------

------------
SCF SETTINGS
------------
Hamiltonian:
 Density Functional     Method          .... DFT(GTOs)
 Exchange Functional    Exchange        .... PBE
   PBE kappa parameter   XKappa         ....  0.804000
   PBE mue parameter    XMuePBE         ....  0.219520
 Correlation Functional Correlation     .... PBE
   PBE beta parameter  CBetaPBE         ....  0.066725
 LDA part of GGA corr.  LDAOpt          .... PW91-LDA
 Gradients option       PostSCFGGA      .... off
 Hybrid DFT is turned on
   Fraction HF Exchange ScalHFX         ....  0.250000
   Scaling of DF-GGA-X  ScalDFX         ....  0.750000
   Scaling of DF-GGA-C  ScalDFC         ....  1.000000
   Scaling of DF-LDA-C  ScalLDAC        ....  1.000000
   Perturbative correction              ....  0.000000
   Density functional embedding theory  .... OFF
   NL short-range parameter             ....  6.900000


General Settings:
 Integral files         IntName         .... Benzene
 Hartree-Fock type      HFTyp           .... RHF
 Total Charge           Charge          ....    0
 Multiplicity           Mult            ....    1
 Number of Electrons    NEL             ....   42
 Basis Dimension        Dim             ....  114
 Nuclear Repulsion      ENuc            ....    203.5377349101 Eh

Convergence Acceleration:
 DIIS                   CNVDIIS         .... on
   Start iteration      DIISMaxIt       ....    12
   Startup error        DIISStart       ....  0.200000
   # of expansion vecs  DIISMaxEq       ....     5
   Bias factor          DIISBfac        ....   1.050
   Max. coefficient     DIISMaxC        ....  10.000
 Trust-Rad. Augm. Hess. CNVTRAH         .... auto
   Auto Start mean grad. ratio tolernc. ....  1.125000
   Auto Start start iteration           ....    20
   Auto Start num. interpolation iter.  ....    10
   Max. Number of Micro iterations      ....    16
   Max. Number of Macro iterations      .... Maxiter - #DIIS iter
   Number of Davidson start vectors     ....     2
   Converg. threshold I  (grad. norm)   ....   1.000e-05
   Converg. threshold II (energy diff.) ....   1.000e-08
   Grad. Scal. Fac. for Micro threshold ....   0.100
   Minimum threshold for Micro iter.    ....   0.010
   NR start threshold (gradient norm)   ....   0.001
   Initial trust radius                 ....   0.400
   Minimum AH scaling param. (alpha)    ....   1.000
   Maximum AH scaling param. (alpha)    .... 1000.000
   Orbital update algorithm             .... Taylor
   White noise on init. David. guess    .... on
   Maximum white noise                  ....   0.010
   Quad. conv. algorithm                .... NR
 SOSCF                  CNVSOSCF        .... on
   Start iteration      SOSCFMaxIt      ....   150
   Startup grad/error   SOSCFStart      ....  0.003300
 Level Shifting         CNVShift        .... on
   Level shift para.    LevelShift      ....    0.2500
   Turn off err/grad.   ShiftErr        ....    0.0010
 Zerner damping         CNVZerner       .... off
 Static damping         CNVDamp         .... off
 Fernandez-Rico         CNVRico         .... off

SCF Procedure:
 Maximum # iterations   MaxIter         ....   125
 SCF integral mode      SCFMode         .... Direct
   Integral package                     .... SHARK and LIBINT hybrid scheme
 Reset frequency        DirectResetFreq ....    20
 Integral Threshold     Thresh          ....  2.500e-11 Eh
 Primitive CutOff       TCut            ....  2.500e-12 Eh

Convergence Tolerance:
 Convergence Check Mode ConvCheckMode   .... Total+1el-Energy
 Convergence forced     ConvForced      .... 1
 Energy Change          TolE            ....  1.000e-08 Eh
 1-El. energy change                    ....  1.000e-05 Eh
 Orbital Gradient       TolG            ....  1.000e-05
 Orbital Rotation angle TolX            ....  1.000e-05
 DIIS Error             TolErr          ....  5.000e-07


Diagonalization of the overlap matrix:
Smallest eigenvalue                        ... 5.216e-04
Time for diagonalization                   ...    0.002 sec
Threshold for overlap eigenvalues          ... 1.000e-08
Number of eigenvalues below threshold      ... 0
Time for construction of square roots      ...    0.046 sec
Total time needed                          ...    0.049 sec

Time for model grid setup =    0.065 sec

------------------------------
INITIAL GUESS: MODEL POTENTIAL
------------------------------
Loading Hartree-Fock densities                     ... done
Calculating cut-offs                               ... done
Initializing the effective Hamiltonian             ... done
Setting up the integral package (SHARK)            ... done
Starting the Coulomb interaction                   ... done (   0.0 sec)
Reading the grid                                   ... done
Mapping shells                                     ... done
Starting the XC term evaluation                    ... done (   0.0 sec)
  promolecular density results
     # of electrons  =     41.997117807
     EX              =    -32.425732623
     EC              =     -1.368443408
     EX+EC           =    -33.794176031
Transforming the Hamiltonian                       ... done (   0.0 sec)
Diagonalizing the Hamiltonian                      ... done (   0.0 sec)
Back transforming the eigenvectors                 ... done (   0.0 sec)
Now organizing SCF variables                       ... done
                      ------------------
                      INITIAL GUESS DONE (   0.2 sec)
                      ------------------
-------------------
DFT GRID GENERATION
-------------------

General Integration Accuracy     IntAcc      ... 4.388
Radial Grid Type                 RadialGrid  ... OptM3 with GC (2021)
Angular Grid (max. ang.)         AngularGrid ... 4 (Lebedev-302)
Angular grid pruning method      GridPruning ... 4 (adaptive)
Weight generation scheme         WeightScheme... Becke
Basis function cutoff            BFCut       ... 1.0000e-11
Integration weight cutoff        WCut        ... 1.0000e-14
Angular grids for H and He will be reduced by one unit
Partially contracted basis set               ... off
Rotationally invariant grid construction     ... off

Total number of grid points                  ...    55556
Total number of batches                      ...      874
Average number of points per batch           ...       63
Average number of grid points per atom       ...     4630
Time for grid setup =    0.257 sec


--------------------
CPCM SOLVATION MODEL
--------------------
CPCM parameters:
  Epsilon                                         ...       2.3741
  Refrac                                          ...       1.4970
  Rsolv                                           ...       1.3000
  Surface type                                    ... GAUSSIAN VDW
  Epsilon function type                           ...         CPCM
Radii:
 Radius for C  used is    3.8550 Bohr (=   2.0400 Ang.)
 Radius for H  used is    2.4944 Bohr (=   1.3200 Ang.)
Calculating surface                               ...        done! (  0.0s)
GEPOL surface points                              ...          698
GEPOL Volume                                      ...     757.4939
GEPOL Surface-area                                ...     440.9743
Calculating surface distance matrix               ...        done! (  0.0s)
Performing Cholesky decomposition & store         ...        done! (  0.0s)
Overall time for CPCM initialization              ...                 0.0s
--------------
SCF ITERATIONS
--------------
ITER       Energy         Delta-E        Max-DP      RMS-DP      [F,P]
               ***  Starting incremental Fock matrix formation  ***
  0   -231.8462689877   0.000000000000 0.12098983  0.00670110  0.1102844
  1   -231.9465637861  -0.100294798355 0.05389622  0.00286242  0.0637337
                               ***Turning on DIIS***
  2   -231.9656993119  -0.019135525804 0.02748761  0.00145136  0.0316455
[kennedy74:45687] 15 more processes have sent help message help-mpi-btl-openib.txt / error in device init
[kennedy74:45687] Set MCA parameter "orte_base_help_aggregate" to 0 to see all help / error messages
  3   -231.9708104215  -0.005111109674 0.00715454  0.00038671  0.0164298
  4   -231.9727068328  -0.001896411235 0.00173079  0.00011964  0.0035694
                      *** Initiating the SOSCF procedure ***
                           *** Shutting down DIIS ***
                      *** Re-Reading the Fockian *** 
                      *** Removing any level shift *** 
ITER      Energy       Delta-E        Grad      Rot      Max-DP    RMS-DP
  5   -231.97279439  -0.0000875618  0.000281  0.000281  0.000792  0.000044
               *** Restarting incremental Fock matrix formation ***
  6   -231.97279675  -0.0000023527  0.000046  0.000049  0.000057  0.000004
  7   -231.97279675  -0.0000000049  0.000037  0.000031  0.000033  0.000002
                  ***Gradient check signals convergence***
              ***Rediagonalizing the Fockian in SOSCF/NRSCF***

               *****************************************************
               *                     SUCCESS                       *
               *           SCF CONVERGED AFTER   8 CYCLES          *
               *****************************************************


----------------
TOTAL SCF ENERGY
----------------

Total Energy       :         -231.97279678 Eh           -6312.30071 eV

Components:
Nuclear Repulsion  :          203.53773491 Eh            5538.54334 eV
Electronic Energy  :         -435.51053169 Eh          -11850.84405 eV
One Electron Energy:         -714.55075540 Eh          -19443.91456 eV
Two Electron Energy:          279.04022371 Eh            7593.07051 eV
CPCM Dielectric    :           -0.00274472 Eh              -0.07469 eV

Virial components:
Potential Energy   :         -462.51199804 Eh          -12585.59131 eV
Kinetic Energy     :          230.53920126 Eh            6273.29059 eV
Virial Ratio       :            2.00621845


DFT components:
N(Alpha)           :       20.999980146806 electrons
N(Beta)            :       20.999980146806 electrons
N(Total)           :       41.999960293612 electrons
E(X)               :      -24.835330204957 Eh       
E(C)               :       -1.382487635145 Eh       
E(XC)              :      -26.217817840102 Eh       
DFET-embed. en.    :        0.000000000000 Eh       
CPCM Solvation Model Properties:
Surface-charge          :           -0.01594599
Charge-correction       :           -0.00000947 Eh              -0.00026 eV
Free-energy (cav+disp)  :  This term is not implemented in the current solvation scheme

---------------
SCF CONVERGENCE
---------------

  Last Energy change         ...   -2.5407e-08  Tolerance :   1.0000e-08
  Last MAX-Density change    ...    4.0578e-06  Tolerance :   1.0000e-07
  Last RMS-Density change    ...    1.5063e-07  Tolerance :   5.0000e-09
  Last Orbital Gradient      ...    1.2885e-06  Tolerance :   1.0000e-05
  Last Orbital Rotation      ...    2.5473e-06  Tolerance :   1.0000e-05

             **** THE GBW FILE WAS UPDATED (Benzene.gbw) ****
             **** DENSITY Benzene.scfp WAS UPDATED ****
             **** ENERGY FILE WAS UPDATED (Benzene.en.tmp) ****
             **** THE GBW FILE WAS UPDATED (Benzene.gbw) ****
             **** DENSITY Benzene.scfp WAS UPDATED ****
----------------
ORBITAL ENERGIES
----------------

  NO   OCC          E(Eh)            E(eV) 
   0   2.0000     -10.231778      -278.4208 
   1   2.0000     -10.231550      -278.4146 
   2   2.0000     -10.231542      -278.4144 
   3   2.0000     -10.231031      -278.4005 
   4   2.0000     -10.231023      -278.4003 
   5   2.0000     -10.230788      -278.3939 
   6   2.0000      -0.874806       -23.8047 
   7   2.0000      -0.763609       -20.7788 
   8   2.0000      -0.763601       -20.7786 
   9   2.0000      -0.615385       -16.7455 
  10   2.0000      -0.615368       -16.7450 
  11   2.0000      -0.533226       -14.5098 
  12   2.0000      -0.468984       -12.7617 
  13   2.0000      -0.453486       -12.3400 
  14   2.0000      -0.427422       -11.6308 
  15   2.0000      -0.427393       -11.6300 
  16   2.0000      -0.377460       -10.2712 
  17   2.0000      -0.347739        -9.4625 
  18   2.0000      -0.347696        -9.4613 
  19   2.0000      -0.259726        -7.0675 
  20   2.0000      -0.259726        -7.0675 
  21   0.0000       0.006411         0.1745 
  22   0.0000       0.006431         0.1750 
  23   0.0000       0.105654         2.8750 
  24   0.0000       0.162889         4.4324 
  25   0.0000       0.162896         4.4326 
  26   0.0000       0.171850         4.6763 
  27   0.0000       0.199474         5.4280 
  28   0.0000       0.199477         5.4280 
  29   0.0000       0.210841         5.7373 
  30   0.0000       0.312237         8.4964 
  31   0.0000       0.312248         8.4967 
  32   0.0000       0.328464         8.9379 
  33   0.0000       0.328503         8.9390 
  34   0.0000       0.480880        13.0854 
  35   0.0000       0.543316        14.7844 
  36   0.0000       0.561373        15.2757 
  37   0.0000       0.566469        15.4144 
  38   0.0000       0.577174        15.7057 
  39   0.0000       0.612322        16.6621 
  40   0.0000       0.619138        16.8476 
  41   0.0000       0.619145        16.8478 
  42   0.0000       0.624035        16.9809 
  43   0.0000       0.624046        16.9812 
  44   0.0000       0.648525        17.6473 
  45   0.0000       0.648532        17.6475 
  46   0.0000       0.687412        18.7054 
  47   0.0000       0.687421        18.7057 
  48   0.0000       0.764311        20.7980 
  49   0.0000       0.845323        23.0024 
  50   0.0000       0.845330        23.0026 
  51   0.0000       0.855728        23.2855 
  52   0.0000       0.866957        23.5911 
  53   0.0000       0.866987        23.5919 
  54   0.0000       0.947592        25.7853 
  55   0.0000       0.960041        26.1240 
  56   0.0000       0.960093        26.1255 
  57   0.0000       0.988038        26.8859 
  58   0.0000       1.097845        29.8739 
  59   0.0000       1.097859        29.8743 
  60   0.0000       1.146406        31.1953 
  61   0.0000       1.146467        31.1970 
  62   0.0000       1.226257        33.3681 
  63   0.0000       1.265028        34.4232 
  64   0.0000       1.303938        35.4819 
  65   0.0000       1.412607        38.4390 
  66   0.0000       1.412648        38.4401 
  67   0.0000       1.434695        39.0400 
  68   0.0000       1.434742        39.0413 
  69   0.0000       1.449746        39.4496 
  70   0.0000       1.449817        39.4515 
  71   0.0000       1.765423        48.0396 
  72   0.0000       1.772810        48.2406 
  73   0.0000       1.828602        49.7588 
  74   0.0000       1.911371        52.0110 
  75   0.0000       1.940683        52.8087 
  76   0.0000       1.940739        52.8102 
  77   0.0000       1.988913        54.1211 
  78   0.0000       1.988915        54.1211 
  79   0.0000       1.988927        54.1215 
  80   0.0000       1.988949        54.1220 
  81   0.0000       2.036715        55.4218 
  82   0.0000       2.090900        56.8963 
  83   0.0000       2.090982        56.8985 
  84   0.0000       2.308398        62.8147 
  85   0.0000       2.308489        62.8172 
  86   0.0000       2.375160        64.6314 
  87   0.0000       2.375228        64.6332 
  88   0.0000       2.379808        64.7579 
  89   0.0000       2.426052        66.0162 
  90   0.0000       2.426877        66.0387 
  91   0.0000       2.426912        66.0396 
  92   0.0000       2.462104        66.9973 
  93   0.0000       2.462133        66.9980 
  94   0.0000       2.511448        68.3400 
  95   0.0000       2.511497        68.3413 
  96   0.0000       2.545373        69.2631 
  97   0.0000       2.613106        71.1062 
  98   0.0000       2.613125        71.1067 
  99   0.0000       2.613757        71.1239 
 100   0.0000       2.671803        72.7035 
 101   0.0000       2.786245        75.8176 
 102   0.0000       2.833480        77.1029 
 103   0.0000       2.833529        77.1043 
 104   0.0000       3.073122        83.6239 
 105   0.0000       3.073211        83.6263 
 106   0.0000       3.214042        87.4585 
 107   0.0000       3.261934        88.7617 
 108   0.0000       3.275412        89.1285 
 109   0.0000       3.275438        89.1292 
 110   0.0000       3.416970        92.9805 
 111   0.0000       3.548191        96.5512 
 112   0.0000       3.548239        96.5525 
 113   0.0000       4.013976       109.2258 

                    ********************************
                    * MULLIKEN POPULATION ANALYSIS *
                    ********************************

-----------------------
MULLIKEN ATOMIC CHARGES
-----------------------
   0 C :   -0.139891
   1 C :   -0.139788
   2 C :   -0.139845
   3 C :   -0.139877
   4 C :   -0.139804
   5 C :   -0.139830
   6 H :    0.139831
   7 H :    0.139850
   8 H :    0.139832
   9 H :    0.139836
  10 H :    0.139847
  11 H :    0.139837
Sum of atomic charges:   -0.0000000

--------------------------------
MULLIKEN REDUCED ORBITAL CHARGES
--------------------------------
  0 C s       :     3.183910  s :     3.183910
      pz      :     0.988679  p :     2.921055
      px      :     1.008068
      py      :     0.924308
      dz2     :     0.002848  d :     0.034925
      dxz     :     0.002331
      dyz     :     0.006274
      dx2y2   :     0.013065
      dxy     :     0.010406
  1 C s       :     3.183894  s :     3.183894
      pz      :     0.988650  p :     2.920970
      px      :     0.933544
      py      :     0.998776
      dz2     :     0.002848  d :     0.034925
      dxz     :     0.005838
      dyz     :     0.002767
      dx2y2   :     0.011897
      dxy     :     0.011574
  2 C s       :     3.183913  s :     3.183913
      pz      :     0.988699  p :     2.921006
      px      :     0.956862
      py      :     0.975445
      dz2     :     0.002847  d :     0.034925
      dxz     :     0.004740
      dyz     :     0.003867
      dx2y2   :     0.010242
      dxy     :     0.013229
  3 C s       :     3.183903  s :     3.183903
      pz      :     0.988685  p :     2.921048
      px      :     1.008055
      py      :     0.924309
      dz2     :     0.002848  d :     0.034925
      dxz     :     0.002331
      dyz     :     0.006274
      dx2y2   :     0.013066
      dxy     :     0.010406
  4 C s       :     3.183902  s :     3.183902
      pz      :     0.988647  p :     2.920977
      px      :     0.933538
      py      :     0.998792
      dz2     :     0.002848  d :     0.034925
      dxz     :     0.005838
      dyz     :     0.002768
      dx2y2   :     0.011898
      dxy     :     0.011573
  5 C s       :     3.183903  s :     3.183903
      pz      :     0.988706  p :     2.921001
      px      :     0.956851
      py      :     0.975444
      dz2     :     0.002847  d :     0.034926
      dxz     :     0.004739
      dyz     :     0.003867
      dx2y2   :     0.010243
      dxy     :     0.013229
  6 H s       :     0.847806  s :     0.847806
      pz      :     0.002715  p :     0.012363
      px      :     0.007606
      py      :     0.002041
  7 H s       :     0.847787  s :     0.847787
      pz      :     0.002715  p :     0.012363
      px      :     0.002657
      py      :     0.006991
  8 H s       :     0.847805  s :     0.847805
      pz      :     0.002716  p :     0.012363
      px      :     0.004209
      py      :     0.005438
  9 H s       :     0.847801  s :     0.847801
      pz      :     0.002715  p :     0.012363
      px      :     0.007606
      py      :     0.002041
 10 H s       :     0.847790  s :     0.847790
      pz      :     0.002715  p :     0.012363
      px      :     0.002656
      py      :     0.006991
 11 H s       :     0.847800  s :     0.847800
      pz      :     0.002716  p :     0.012363
      px      :     0.004209
      py      :     0.005438


                     *******************************
                     * LOEWDIN POPULATION ANALYSIS *
                     *******************************

----------------------
LOEWDIN ATOMIC CHARGES
----------------------
   0 C :   -0.087036
   1 C :   -0.087016
   2 C :   -0.087040
   3 C :   -0.087040
   4 C :   -0.087012
   5 C :   -0.087044
   6 H :    0.087025
   7 H :    0.087039
   8 H :    0.087029
   9 H :    0.087027
  10 H :    0.087037
  11 H :    0.087032

-------------------------------
LOEWDIN REDUCED ORBITAL CHARGES
-------------------------------
  0 C s       :     2.900849  s :     2.900849
      pz      :     0.974893  p :     3.102095
      px      :     1.062923
      py      :     1.064279
      dz2     :     0.005240  d :     0.084093
      dxz     :     0.003874
      dyz     :     0.013472
      dx2y2   :     0.033085
      dxy     :     0.028421
  1 C s       :     2.900853  s :     2.900853
      pz      :     0.974872  p :     3.102073
      px      :     1.064132
      py      :     1.063069
      dz2     :     0.005239  d :     0.084090
      dxz     :     0.012410
      dyz     :     0.004936
      dx2y2   :     0.031035
      dxy     :     0.030469
  2 C s       :     2.900843  s :     2.900843
      pz      :     0.974901  p :     3.102102
      px      :     1.063753
      py      :     1.063448
      dz2     :     0.005238  d :     0.084096
      dxz     :     0.009737
      dyz     :     0.007612
      dx2y2   :     0.028132
      dxy     :     0.033377
  3 C s       :     2.900848  s :     2.900848
      pz      :     0.974899  p :     3.102100
      px      :     1.062926
      py      :     1.064275
      dz2     :     0.005240  d :     0.084092
      dxz     :     0.003875
      dyz     :     0.013472
      dx2y2   :     0.033087
      dxy     :     0.028419
  4 C s       :     2.900851  s :     2.900851
      pz      :     0.974868  p :     3.102070
      px      :     1.064126
      py      :     1.063076
      dz2     :     0.005239  d :     0.084091
      dxz     :     0.012410
      dyz     :     0.004936
      dx2y2   :     0.031038
      dxy     :     0.030467
  5 C s       :     2.900839  s :     2.900839
      pz      :     0.974907  p :     3.102108
      px      :     1.063741
      py      :     1.063459
      dz2     :     0.005238  d :     0.084097
      dxz     :     0.009736
      dyz     :     0.007613
      dx2y2   :     0.028134
      dxy     :     0.033376
  6 H s       :     0.872018  s :     0.872018
      pz      :     0.007776  p :     0.040957
      px      :     0.026766
      py      :     0.006414
  7 H s       :     0.872004  s :     0.872004
      pz      :     0.007776  p :     0.040957
      px      :     0.008665
      py      :     0.024516
  8 H s       :     0.872015  s :     0.872015
      pz      :     0.007778  p :     0.040956
      px      :     0.014341
      py      :     0.018836
  9 H s       :     0.872015  s :     0.872015
      pz      :     0.007777  p :     0.040957
      px      :     0.026767
      py      :     0.006414
 10 H s       :     0.872005  s :     0.872005
      pz      :     0.007776  p :     0.040957
      px      :     0.008665
      py      :     0.024516
 11 H s       :     0.872012  s :     0.872012
      pz      :     0.007778  p :     0.040956
      px      :     0.014341
      py      :     0.018837


                      *****************************
                      * MAYER POPULATION ANALYSIS *
                      *****************************

  NA   - Mulliken gross atomic population
  ZA   - Total nuclear charge
  QA   - Mulliken gross atomic charge
  VA   - Mayer's total valence
  BVA  - Mayer's bonded valence
  FA   - Mayer's free valence

  ATOM       NA         ZA         QA         VA         BVA        FA
  0 C      6.1399     6.0000    -0.1399     3.9352     3.9352    -0.0000
  1 C      6.1398     6.0000    -0.1398     3.9351     3.9351    -0.0000
  2 C      6.1398     6.0000    -0.1398     3.9352     3.9352    -0.0000
  3 C      6.1399     6.0000    -0.1399     3.9352     3.9352     0.0000
  4 C      6.1398     6.0000    -0.1398     3.9351     3.9351    -0.0000
  5 C      6.1398     6.0000    -0.1398     3.9352     3.9352    -0.0000
  6 H      0.8602     1.0000     0.1398     0.9499     0.9499     0.0000
  7 H      0.8601     1.0000     0.1399     0.9499     0.9499     0.0000
  8 H      0.8602     1.0000     0.1398     0.9499     0.9499    -0.0000
  9 H      0.8602     1.0000     0.1398     0.9499     0.9499    -0.0000
 10 H      0.8602     1.0000     0.1398     0.9499     0.9499    -0.0000
 11 H      0.8602     1.0000     0.1398     0.9499     0.9499     0.0000

  Mayer bond orders larger than 0.100000
B(  0-C ,  1-C ) :   1.4469 B(  0-C ,  5-C ) :   1.4471 B(  0-C ,  6-H ) :   0.9399 
B(  1-C ,  2-C ) :   1.4470 B(  1-C ,  7-H ) :   0.9399 B(  2-C ,  3-C ) :   1.4470 
B(  2-C ,  8-H ) :   0.9399 B(  3-C ,  4-C ) :   1.4470 B(  3-C ,  9-H ) :   0.9399 
B(  4-C ,  5-C ) :   1.4469 B(  4-C , 10-H ) :   0.9399 B(  5-C , 11-H ) :   0.9399 


-------
TIMINGS
-------

Total SCF time: 0 days 0 hours 0 min 6 sec 

Total time                  ....       6.794 sec
Sum of individual times     ....       5.497 sec  ( 80.9%)

Fock matrix formation       ....       4.632 sec  ( 68.2%)
  XC integration            ....       1.651 sec  ( 35.6% of F)
    Basis function eval.    ....       0.131 sec  (  7.9% of XC)
    Density eval.           ....       0.070 sec  (  4.2% of XC)
    XC-Functional eval.     ....       0.036 sec  (  2.2% of XC)
    XC-Potential eval.      ....       0.070 sec  (  4.3% of XC)
Diagonalization             ....       0.186 sec  (  2.7%)
Density matrix formation    ....       0.002 sec  (  0.0%)
Population analysis         ....       0.014 sec  (  0.2%)
Initial guess               ....       0.133 sec  (  2.0%)
Orbital Transformation      ....       0.000 sec  (  0.0%)
Orbital Orthonormalization  ....       0.000 sec  (  0.0%)
DIIS solution               ....       0.167 sec  (  2.5%)
SOSCF solution              ....       0.040 sec  (  0.6%)
Grid generation             ....       0.322 sec  (  4.7%)

Maximum memory used throughout the entire SCF-calculation: 230.4 MB
--------------------------------------------------------------------------
WARNING: There was an error initializing an OpenFabrics device.

  Local host:   kennedy74
  Local device: mlx5_0
--------------------------------------------------------------------------


           ************************************************************
           *        Program running with 16 parallel MPI-processes    *
           *              working on a common directory               *
           ************************************************************
------------------------------------------------------------------------------
                        ORCA TD-DFT/TDA CALCULATION
------------------------------------------------------------------------------

Input orbitals are from        ... Benzene.gbw
CI-vector output               ... Benzene.cis
Tamm-Dancoff approximation     ... operative
CIS-Integral strategy          ... AO-integrals
Integral handling              ... AO integral Direct
Max. core memory used          ... 2000 MB
Reference state                ... RHF
Generation of triplets         ... off
Follow IRoot                   ... off
Number of operators            ... 1
Orbital ranges used for CIS calculation:
 Operator 0:  Orbitals   6... 20  to  21...113
XAS localization array:
 Operator 0:  Orbitals  -1... -1

-------------------
XC-INTEGRATION GRID
-------------------

General Integration Accuracy     IntAcc      ... 3.467
Radial Grid Type                 RadialGrid  ... OptM3 with GC (2021)
Angular Grid (max. ang.)         AngularGrid ... 1 (Lebedev-50)
Angular grid pruning method      GridPruning ... 4 (adaptive)
Weight generation scheme         WeightScheme... Becke
Basis function cutoff            BFCut       ... 1.0000e-11
Integration weight cutoff        WCut        ... 1.0000e-14
Angular grids for H and He will be reduced by one unit
Partially contracted basis set               ... off
Rotationally invariant grid construction     ... off

Total number of grid points                  ...     8118
Total number of batches                      ...      132
Average number of points per batch           ...       61
Average number of grid points per atom       ...      676

---------------
TD-DFT XC SETUP
---------------

DFT calculation                         ... on
Name of the grid file                   ... Benzene.grid_cis.tmp
Exchange functional (TD-DFT)            ... PBE
   PBE kappa parameter  XKappa (TD-DFT) ...  0.804000
   PBE mue parameter   XMuePBE (TD-DFT) ...  0.219520
Correlation functional (TD-DFT)         ... PBE
   PBE beta parameter CBetaPBE (TD-DFT) ...  0.066725
 LDA part of GGA corr.  LDAOpt (TD-DFT) ... PW91-LDA
Hybrid DFT                              ... on
   Exchange mixing (TD-DFT)             ...  0.250
   GGA exch. scaling (TD-DFT)           ...  0.750
   GGA corr. scaling (TD-DFT)           ...  1.000

Building densities             ... done
Calculating rho(r) on the grid ... done
Building xc-kernel on the grid ... done
                    *** TD-DFT CALCULATION INITIALIZED ***

-----------------------------
    LR-CPCM (equilibrium)
-----------------------------

Setting up LR-CPCM             ... done

------------------------
DAVIDSON-DIAGONALIZATION
------------------------

Dimension of the eigenvalue problem            ...   1395
Number of roots to be determined               ...     10
Maximum size of the expansion space            ...    100
Maximum number of iterations                   ...    100
Convergence tolerance for the residual         ...    2.500e-07
Convergence tolerance for the energies         ...    2.500e-07
Orthogonality tolerance                        ...    1.000e-14
Level Shift                                    ...    0.000e+00
Constructing the preconditioner                ... o.k.
Building the initial guess                     ... o.k.
Number of trial vectors determined             ...    100


                       ****Iteration    0****

   Memory handling for direct AO based CIS:
   Memory per vector needed      ...     1 MB
   Memory needed                 ...     8 MB
   Memory available              ...  2000 MB
   Number of vectors per batch   ...  2000
   Number of batches             ...     1
   Time for densities:            0.010
   SHARK[1a]
[kennedy74:45811] 15 more processes have sent help message help-mpi-btl-openib.txt / error in device init
[kennedy74:45811] Set MCA parameter "orte_base_help_aggregate" to 0 to see all help / error messages
   Time for J+K (Direct):         1.367
   Time for XC-Integration:       0.153
   Time for LR-CPCM terms:        0.227
   Time for Sigma-Completion:     0.026
   Size of expansion space: 30
   Lowest Energy          :     0.209944546352
   Maximum Energy change  :     0.332820923787 (vector 9)
   Maximum residual norm  :     0.046109948132

                       ****Iteration    1****
   Time for densities:            0.003
   SHARK[1a]
   Time for J+K (Direct):         0.404
   Time for XC-Integration:       0.068
   Time for LR-CPCM terms:        0.150
   Time for Sigma-Completion:     0.009
   Size of expansion space: 40
   Lowest Energy          :     0.208156558848
   Maximum Energy change  :     0.026407899308 (vector 1)
   Maximum residual norm  :     0.000340866335

                       ****Iteration    2****
   Time for densities:            0.004
   SHARK[1a]
   Time for J+K (Direct):         0.417
   Time for XC-Integration:       0.061
   Time for LR-CPCM terms:        0.150
   Time for Sigma-Completion:     0.017
   Size of expansion space: 50
   Lowest Energy          :     0.208145961100
   Maximum Energy change  :     0.000450795778 (vector 3)
   Maximum residual norm  :     0.000006957738

                       ****Iteration    3****
   Time for densities:            0.004
   SHARK[1a]
   Time for J+K (Direct):         0.416
   Time for XC-Integration:       0.062
   Time for LR-CPCM terms:        0.159
   Time for Sigma-Completion:     0.009
   Size of expansion space: 60
   Lowest Energy          :     0.208145940405
   Maximum Energy change  :     0.000006105147 (vector 2)
   Maximum residual norm  :     0.000000078908

      *** CONVERGENCE OF RESIDUAL NORM REACHED ***

Storing the converged CI vectors               ... Benzene.cis1

                 *** DAVIDSON DONE ***

Total time for solving the CIS problem:     4.234sec

------------------------------------
TD-DFT/TDA EXCITED STATES (SINGLETS)
------------------------------------

the weight of the individual excitations are printed if larger than 1.0e-02

STATE  1:  E=   0.208146 au      5.664 eV    45682.8 cm**-1 <S**2> =   0.000000
    19a ->  22a  :     0.498766 (c= -0.70623383)
    20a ->  21a  :     0.499196 (c= -0.70653827)

STATE  2:  E=   0.243078 au      6.614 eV    53349.5 cm**-1 <S**2> =   0.000000
    19a ->  21a  :     0.486110 (c=  0.69721597)
    20a ->  22a  :     0.487331 (c= -0.69809107)

STATE  3:  E=   0.282961 au      7.700 eV    62102.7 cm**-1 <S**2> =   0.000000
    19a ->  21a  :     0.467876 (c=  0.68401437)
    20a ->  22a  :     0.466665 (c=  0.68312871)

STATE  4:  E=   0.283012 au      7.701 eV    62114.0 cm**-1 <S**2> =   0.000000
    19a ->  22a  :     0.467435 (c=  0.68369248)
    20a ->  21a  :     0.467031 (c= -0.68339678)

STATE  5:  E=   0.287490 au      7.823 eV    63096.7 cm**-1 <S**2> =   0.000000
    17a ->  22a  :     0.486674 (c=  0.69761992)
    18a ->  21a  :     0.502787 (c= -0.70907489)

STATE  6:  E=   0.291234 au      7.925 eV    63918.4 cm**-1 <S**2> =   0.000000
    17a ->  21a  :     0.020457 (c=  0.14302643)
    17a ->  22a  :     0.485355 (c= -0.69667432)
    18a ->  21a  :     0.470720 (c= -0.68609026)
    18a ->  22a  :     0.016966 (c= -0.13025353)

STATE  7:  E=   0.291240 au      7.925 eV    63919.7 cm**-1 <S**2> =   0.000000
    17a ->  21a  :     0.444441 (c= -0.66666437)
    17a ->  22a  :     0.018478 (c= -0.13593438)
    18a ->  21a  :     0.018707 (c= -0.13677482)
    18a ->  22a  :     0.511888 (c=  0.71546347)

STATE  8:  E=   0.291370 au      7.929 eV    63948.3 cm**-1 <S**2> =   0.000000
    17a ->  21a  :     0.527753 (c= -0.72646616)
    18a ->  22a  :     0.463799 (c= -0.68102760)

STATE  9:  E=   0.313965 au      8.543 eV    68907.4 cm**-1 <S**2> =   0.000000
    19a ->  23a  :     0.986314 (c= -0.99313345)

STATE 10:  E=   0.313983 au      8.544 eV    68911.3 cm**-1 <S**2> =   0.000000
    20a ->  23a  :     0.986338 (c=  0.99314552)


------------------------------------------
NATURAL TRANSITION ORBITALS FOR STATE    1
------------------------------------------

Making the (pseudo)densities                       ... done
Solving eigenvalue problem for the occupied space  ... done
Solving eigenvalue problem for the virtual space   ... done
Natural Transition Orbitals were saved in Benzene.s1.nto
Threshold for printing occupation numbers 0.001000

 E=   0.208146 au      5.664 eV    45682.8 cm**-1
    20a ->  21a  : n=  0.49925038
    19a ->  22a  : n=  0.49882059


------------------------------------------
NATURAL TRANSITION ORBITALS FOR STATE    2
------------------------------------------

Making the (pseudo)densities                       ... done
Solving eigenvalue problem for the occupied space  ... done
Solving eigenvalue problem for the virtual space   ... done
Natural Transition Orbitals were saved in Benzene.s2.nto
Threshold for printing occupation numbers 0.001000

 E=   0.243078 au      6.614 eV    53349.5 cm**-1
    20a ->  21a  : n=  0.48787289
    19a ->  22a  : n=  0.48657091
    18a ->  23a  : n=  0.00355728
    17a ->  24a  : n=  0.00354962
    16a ->  25a  : n=  0.00345978
    15a ->  26a  : n=  0.00250717
    14a ->  27a  : n=  0.00203064
    13a ->  28a  : n=  0.00202436
    12a ->  29a  : n=  0.00162355
    11a ->  30a  : n=  0.00162142
    10a ->  31a  : n=  0.00141554
     9a ->  32a  : n=  0.00103639
     8a ->  33a  : n=  0.00103509


------------------------------------------
NATURAL TRANSITION ORBITALS FOR STATE    3
------------------------------------------

Making the (pseudo)densities                       ... done
Solving eigenvalue problem for the occupied space  ... done
Solving eigenvalue problem for the virtual space   ... done
Natural Transition Orbitals were saved in Benzene.s3.nto
Threshold for printing occupation numbers 0.001000

 E=   0.282961 au      7.700 eV    62102.7 cm**-1
    20a ->  21a  : n=  0.47139363
    19a ->  22a  : n=  0.46941331
    18a ->  23a  : n=  0.01086590
    17a ->  24a  : n=  0.01013304
    16a ->  25a  : n=  0.00951229
    15a ->  26a  : n=  0.00730047
    14a ->  27a  : n=  0.00626882
    13a ->  28a  : n=  0.00619134
    12a ->  29a  : n=  0.00352747
    11a ->  30a  : n=  0.00260792
    10a ->  31a  : n=  0.00130505


------------------------------------------
NATURAL TRANSITION ORBITALS FOR STATE    4
------------------------------------------

Making the (pseudo)densities                       ... done
Solving eigenvalue problem for the occupied space  ... done
Solving eigenvalue problem for the virtual space   ... done
Natural Transition Orbitals were saved in Benzene.s4.nto
Threshold for printing occupation numbers 0.001000

 E=   0.283012 au      7.701 eV    62114.0 cm**-1
    20a ->  21a  : n=  0.47198450
    19a ->  22a  : n=  0.46874550
    18a ->  23a  : n=  0.01085205
    17a ->  24a  : n=  0.01017770
    16a ->  25a  : n=  0.00959899
    15a ->  26a  : n=  0.00727507
    14a ->  27a  : n=  0.00616734
    13a ->  28a  : n=  0.00615113
    12a ->  29a  : n=  0.00362374
    11a ->  30a  : n=  0.00273233
    10a ->  31a  : n=  0.00129985


------------------------------------------
NATURAL TRANSITION ORBITALS FOR STATE    5
------------------------------------------

Making the (pseudo)densities                       ... done
Solving eigenvalue problem for the occupied space  ... done
Solving eigenvalue problem for the virtual space   ... done
Natural Transition Orbitals were saved in Benzene.s5.nto
Threshold for printing occupation numbers 0.001000

 E=   0.287490 au      7.823 eV    63096.7 cm**-1
    20a ->  21a  : n=  0.50572343
    19a ->  22a  : n=  0.48955011
    18a ->  23a  : n=  0.00460716


------------------------------------------
NATURAL TRANSITION ORBITALS FOR STATE    6
------------------------------------------

Making the (pseudo)densities                       ... done
Solving eigenvalue problem for the occupied space  ... done
Solving eigenvalue problem for the virtual space   ... done
Natural Transition Orbitals were saved in Benzene.s6.nto
Threshold for printing occupation numbers 0.001000

 E=   0.291234 au      7.925 eV    63918.4 cm**-1
    20a ->  21a  : n=  0.50906873
    19a ->  22a  : n=  0.48591307
    18a ->  23a  : n=  0.00300747
    17a ->  24a  : n=  0.00120739


------------------------------------------
NATURAL TRANSITION ORBITALS FOR STATE    7
------------------------------------------

Making the (pseudo)densities                       ... done
Solving eigenvalue problem for the occupied space  ... done
Solving eigenvalue problem for the virtual space   ... done
Natural Transition Orbitals were saved in Benzene.s7.nto
Threshold for printing occupation numbers 0.001000

 E=   0.291240 au      7.925 eV    63919.7 cm**-1
    20a ->  21a  : n=  0.53203798
    19a ->  22a  : n=  0.46295696
    18a ->  23a  : n=  0.00300837
    17a ->  24a  : n=  0.00123707


------------------------------------------
NATURAL TRANSITION ORBITALS FOR STATE    8
------------------------------------------

Making the (pseudo)densities                       ... done
Solving eigenvalue problem for the occupied space  ... done
Solving eigenvalue problem for the virtual space   ... done
Natural Transition Orbitals were saved in Benzene.s8.nto
Threshold for printing occupation numbers 0.001000

 E=   0.291370 au      7.929 eV    63948.3 cm**-1
    20a ->  21a  : n=  0.53295938
    19a ->  22a  : n=  0.46217502
    18a ->  23a  : n=  0.00279680


------------------------------------------
NATURAL TRANSITION ORBITALS FOR STATE    9
------------------------------------------

Making the (pseudo)densities                       ... done
Solving eigenvalue problem for the occupied space  ... done
Solving eigenvalue problem for the virtual space   ... done
Natural Transition Orbitals were saved in Benzene.s9.nto
Threshold for printing occupation numbers 0.001000

 E=   0.313965 au      8.543 eV    68907.4 cm**-1
    20a ->  21a  : n=  0.99080287
    19a ->  22a  : n=  0.00375209
    18a ->  23a  : n=  0.00269230
    17a ->  24a  : n=  0.00163402


------------------------------------------
NATURAL TRANSITION ORBITALS FOR STATE   10
------------------------------------------

Making the (pseudo)densities                       ... done
Solving eigenvalue problem for the occupied space  ... done
Solving eigenvalue problem for the virtual space   ... done
Natural Transition Orbitals were saved in Benzene.s10.nto
Threshold for printing occupation numbers 0.001000

 E=   0.313983 au      8.544 eV    68911.3 cm**-1
    20a ->  21a  : n=  0.99082671
    19a ->  22a  : n=  0.00374500
    18a ->  23a  : n=  0.00267252
    17a ->  24a  : n=  0.00164239


-----------------------------
TD-DFT/TDA-EXCITATION SPECTRA
-----------------------------

Center of mass = (  0.0090, -0.0104,  0.0009)
Calculating the Dipole integrals                  ... done
Transforming integrals                            ... done
Calculating the Linear Momentum integrals         ... done
Transforming integrals                            ... done
Calculating angular momentum integrals            ... done
Transforming integrals                            ... done

-----------------------------------------------------------------------------
         ABSORPTION SPECTRUM VIA TRANSITION ELECTRIC DIPOLE MOMENTS
-----------------------------------------------------------------------------
State   Energy    Wavelength  fosc         T2        TX        TY        TZ  
        (cm-1)      (nm)                 (au**2)    (au)      (au)      (au) 
-----------------------------------------------------------------------------
   1   45682.8    218.9   0.000000061   0.00000   0.00056  -0.00036   0.00001
   2   53349.5    187.4   0.000000270   0.00000  -0.00106  -0.00074   0.00003
   3   62102.7    161.0   1.123278932   5.95460   1.02775   2.21307   0.02536
   4   62114.0    161.0   1.123049012   5.95230   2.21240  -1.02839   0.00182
   5   63096.7    158.5   0.000000037   0.00000   0.00028  -0.00024   0.00024
   6   63918.4    156.4   0.000000633   0.00000   0.00039  -0.00023  -0.00175
   7   63919.7    156.4   0.000009333   0.00005   0.00034   0.00015  -0.00692
   8   63948.3    156.4   0.007613839   0.03920  -0.00085  -0.00159   0.19797
   9   68907.4    145.1   0.000000039   0.00000   0.00026  -0.00034  -0.00000
  10   68911.3    145.1   0.000000039   0.00000  -0.00035  -0.00026  -0.00000

-----------------------------------------------------------------------------
         ABSORPTION SPECTRUM VIA TRANSITION VELOCITY DIPOLE MOMENTS
-----------------------------------------------------------------------------
State   Energy    Wavelength   fosc        P2         PX        PY        PZ  
        (cm-1)      (nm)                 (au**2)     (au)      (au)      (au) 
-----------------------------------------------------------------------------
   1   45682.8    218.9   0.000000106   0.00000  -0.00014   0.00011  -0.00000
   2   53349.5    187.4   0.000000103   0.00000   0.00019  -0.00002  -0.00002
   3   62102.7    161.0   0.217930487   0.09250  -0.12784  -0.27594  -0.00316
   4   62114.0    161.0   0.217357770   0.09227  -0.27549   0.12798  -0.00023
   5   63096.7    158.5   0.000000027   0.00000  -0.00003   0.00003  -0.00010
   6   63918.4    156.4   0.000000617   0.00000  -0.00005   0.00003   0.00052
   7   63919.7    156.4   0.000009640   0.00000  -0.00005  -0.00003   0.00205
   8   63948.3    156.4   0.007684322   0.00336   0.00028   0.00050  -0.05795
   9   68907.4    145.1   0.000000013   0.00000  -0.00005   0.00006   0.00000
  10   68911.3    145.1   0.000000013   0.00000   0.00006   0.00005  -0.00000

-------------------------------------------------------------------
                             CD SPECTRUM
-------------------------------------------------------------------
State  Energy     Wavelength     R         MX        MY        MZ   
       (cm-1)       (nm)     (1e40*cgs)   (au)      (au)      (au)  
-------------------------------------------------------------------
   1   45682.8    218.9     -0.00000   0.00000   0.00001  -0.00001
   2   53349.5    187.4     -0.00000  -0.00000   0.00000  -0.00010
   3   62102.7    161.0      0.00669  -0.00000   0.00001  -0.00000
   4   62114.0    161.0     -0.00669  -0.00001  -0.00000  -0.00001
   5   63096.7    158.5      0.00000   0.00000  -0.00003   0.00000
   6   63918.4    156.4      0.00003   0.00004  -0.00006  -0.00002
   7   63919.7    156.4      0.00003   0.00007   0.00002  -0.00001
   8   63948.3    156.4     -0.00004   0.00001   0.00000  -0.00000
   9   68907.4    145.1     -0.00131   0.18382   0.14831   0.00227
  10   68911.3    145.1      0.00136  -0.14826   0.18370   0.00092

-------------------------------------------------------------------
         CD SPECTRUM VIA TRANSITION VELOCITY DIPOLE MOMENTS        
-------------------------------------------------------------------
State  Energy     Wavelength     R         MX        MY        MZ   
       (cm-1)       (nm)     (1e40*cgs)   (au)      (au)      (au)  
-------------------------------------------------------------------
   1   45682.8    218.9      0.00000   0.00000   0.00001  -0.00001
   2   53349.5    187.4      0.00000  -0.00000   0.00000  -0.00010
   3   62102.7    161.0     -0.00295  -0.00000   0.00001  -0.00000
   4   62114.0    161.0      0.00294  -0.00001  -0.00000  -0.00001
   5   63096.7    158.5     -0.00000   0.00000  -0.00003   0.00000
   6   63918.4    156.4     -0.00002   0.00004  -0.00006  -0.00002
   7   63919.7    156.4     -0.00003   0.00007   0.00002  -0.00001
   8   63948.3    156.4      0.00004   0.00001   0.00000  -0.00000
   9   68907.4    145.1      0.00077   0.18382   0.14831   0.00227
  10   68911.3    145.1     -0.00077  -0.14826   0.18370   0.00092

Total run time:        7.254 sec

           *** ORCA-CIS/TD-DFT FINISHED WITHOUT ERROR ***

Maximum memory used throughout the entire CIS-calculation: 46.1 MB

-----------------------
CIS/TD-DFT TOTAL ENERGY
-----------------------

    E(SCF)  =   -231.972796778 Eh
    DE(CIS) =      0.208145940 Eh (Root  1)
    ----------------------------- ---------
    E(tot)  =   -231.764650837 Eh


-------------------------   --------------------
FINAL SINGLE POINT ENERGY      -231.764650837281
-------------------------   --------------------

--------------------------------------------------------------------------
WARNING: There was an error initializing an OpenFabrics device.

  Local host:   kennedy74
  Local device: mlx5_0
--------------------------------------------------------------------------


           ************************************************************
           *        Program running with 16 parallel MPI-processes    *
           *              working on a common directory               *
           ************************************************************
------------------------------------------------------------------------------
                         ORCA SCF GRADIENT CALCULATION
------------------------------------------------------------------------------


------------------------
TD-DFT GRADIENT XC SETUP
------------------------

Building densities                     ... done
Calculating rho(r) on the grid         ... done
Building xc-kernel on the grid         ... done
Building xc 3rd derivative on the grid      ... done
                *** TD-DFT GRADIENT CALCULATION INITIALIZED ***

-------------------
TD-DFT/TDA GRADIENT
-------------------

Reference wavefunction             ... RHF
State of interest                  ... 1
Basis dimension                    ... 114
DFT-XC contribution needed         ... YES
RI-approximation                   ... OFF
CIS-vectors being read from        ... Benzene.cis

 => Number of Vectors found: 10
 => Orbital Window: 6...20 -> 21...113

Reading the CIS file                     ... done
Norm of the CI vector                    ... 1.000000000
Reading the CPCM file                    ... done
Making the CIS (pseudo)densities         ... done
Making operators G(D) and Q(T)           ... done
Transforming the Fock operators          ... done
Making the frozen-core relaxed density   ... done
Constructing the G(H) operator           ... done
Transforming the G(H) operator           ... done
Calculating the CIS Lagrangian           ... done
Solving the Z-vector equations           ... [kennedy74:45930] 15 more processes have sent help message help-mpi-btl-openib.txt / error in device init
[kennedy74:45930] Set MCA parameter "orte_base_help_aggregate" to 0 to see all help / error messages
done
Finalizing the relaxed density           ... done
Storing the relaxed density              ... done
Constructing the G(Z) operator           ... done
Transforming the G(Z) operator           ... done
Making the W-matrix                      ... done
Finalizing the W-matrix                  ... done
Transforming the W-matrix                ... done
Nuclear repulsion gradient               ... done
One-Electron gradient                    ... done
Prescreening matrices                    ... done
Two-Electron gradient (4-center)         ... done
Exchange-Correlation gradient            ... done
LR-CPCM gradient                         ... done

                 ---------------------------
                 EXCITED STATE GRADIENT DONE
                 ---------------------------

------------------
CARTESIAN GRADIENT
------------------

   1   C   :   -0.029789087    0.004732019   -0.000117175
   2   C   :   -0.010908824    0.028135432    0.000201895
   3   C   :    0.019016950    0.023506349    0.000319115
   4   C   :    0.029787024   -0.004666361    0.000117112
   5   C   :    0.010868398   -0.028169462   -0.000209174
   6   C   :   -0.018974625   -0.023529104   -0.000311754
   7   H   :    0.000942367   -0.000161249    0.000002492
   8   H   :    0.000352331   -0.000895626   -0.000003079
   9   H   :   -0.000605686   -0.000744401   -0.000008352
  10   H   :   -0.000944429    0.000152270   -0.000002226
  11   H   :   -0.000349428    0.000896588    0.000006661
  12   H   :    0.000605003    0.000743549    0.000004487

Difference to translation invariance:
           :   -0.0000000046    0.0000000045    0.0000000019

Difference to rotation invariance:
           :   -0.0000689927    0.0000814317   -0.0001168176

Norm of the cartesian gradient     ...    0.0739915501
RMS gradient                       ...    0.0123319250
MAX gradient                       ...    0.0297890873

------------------------------------------------------------------------------
                  RELAXED CIS/TDA DENSITY POPULATION ANALYSIS
                                   IROOT 1
------------------------------------------------------------------------------
------------------------------------------------------------------------------
                           ORCA POPULATION ANALYSIS
------------------------------------------------------------------------------
Input electron density              ... Benzene.cisp
BaseName (.gbw .S,...)              ... Benzene

                    ********************************
                    * MULLIKEN POPULATION ANALYSIS *
                    ********************************

-----------------------
MULLIKEN ATOMIC CHARGES
-----------------------
   0 C :   -0.143408
   1 C :   -0.143291
   2 C :   -0.143333
   3 C :   -0.143390
   4 C :   -0.143310
   5 C :   -0.143314
   6 H :    0.143329
   7 H :    0.143345
   8 H :    0.143346
   9 H :    0.143334
  10 H :    0.143341
  11 H :    0.143351
Sum of atomic charges:   -0.0000000

--------------------------------
MULLIKEN REDUCED ORBITAL CHARGES
--------------------------------
  0 C s       :     3.186904  s :     3.186904
      pz      :     0.986843  p :     2.919986
      px      :     1.012289
      py      :     0.920854
      dz2     :     0.002901  d :     0.036518
      dxz     :     0.002713
      dyz     :     0.007262
      dx2y2   :     0.012873
      dxy     :     0.010769
  1 C s       :     3.186881  s :     3.186881
      pz      :     0.986835  p :     2.919896
      px      :     0.930921
      py      :     1.002140
      dz2     :     0.002900  d :     0.036515
      dxz     :     0.006757
      dyz     :     0.003217
      dx2y2   :     0.011948
      dxy     :     0.011693
  2 C s       :     3.186931  s :     3.186931
      pz      :     0.986759  p :     2.919880
      px      :     0.956416
      py      :     0.976704
      dz2     :     0.002899  d :     0.036522
[...]
   SHARK[1a]
   Time for J+K (Direct):         0.413
   Time for XC-Integration:       0.061
   Time for LR-CPCM terms:        0.146
   Time for Sigma-Completion:     0.009
   Size of expansion space: 60
   Lowest Energy          :     0.198358024447
   Maximum Energy change  :     0.000005986815 (vector 3)
   Maximum residual norm  :     0.000000079889

      *** CONVERGENCE OF RESIDUAL NORM REACHED ***

Storing the converged CI vectors               ... Benzene.cis1

                 *** DAVIDSON DONE ***

Total time for solving the CIS problem:     4.195sec

------------------------------------
TD-DFT/TDA EXCITED STATES (SINGLETS)
------------------------------------

the weight of the individual excitations are printed if larger than 1.0e-02

STATE  1:  E=   0.198358 au      5.398 eV    43534.6 cm**-1 <S**2> =   0.000000
    19a ->  21a  :     0.010254 (c=  0.10126011)
    19a ->  22a  :     0.488717 (c= -0.69908333)
    20a ->  21a  :     0.488890 (c=  0.69920703)
    20a ->  22a  :     0.010242 (c=  0.10120191)

STATE  2:  E=   0.234063 au      6.369 eV    51370.9 cm**-1 <S**2> =   0.000000
    19a ->  21a  :     0.475838 (c= -0.68981034)
    19a ->  22a  :     0.010086 (c= -0.10042805)
    20a ->  22a  :     0.476010 (c= -0.68993508)

STATE  3:  E=   0.272734 au      7.421 eV    59858.2 cm**-1 <S**2> =   0.000000
    19a ->  21a  :     0.212718 (c= -0.46121358)
    19a ->  22a  :     0.256089 (c=  0.50605220)
    20a ->  21a  :     0.256157 (c=  0.50611922)
    20a ->  22a  :     0.211902 (c=  0.46032783)

STATE  4:  E=   0.272777 au      7.423 eV    59867.6 cm**-1 <S**2> =   0.000000
    19a ->  21a  :     0.255777 (c=  0.50574428)
    19a ->  22a  :     0.212309 (c=  0.46077040)
    20a ->  21a  :     0.212286 (c=  0.46074488)
    20a ->  22a  :     0.256424 (c= -0.50638282)

STATE  5:  E=   0.282698 au      7.693 eV    62045.0 cm**-1 <S**2> =   0.000000
    17a ->  22a  :     0.489666 (c=  0.69976174)
    18a ->  21a  :     0.497573 (c= -0.70538825)

STATE  6:  E=   0.286535 au      7.797 eV    62887.1 cm**-1 <S**2> =   0.000000
    17a ->  21a  :     0.382609 (c= -0.61855373)
    17a ->  22a  :     0.108505 (c= -0.32940163)
    18a ->  21a  :     0.107494 (c= -0.32786227)
    18a ->  22a  :     0.394519 (c=  0.62810755)

STATE  7:  E=   0.286541 au      7.797 eV    62888.4 cm**-1 <S**2> =   0.000000
    17a ->  21a  :     0.113901 (c=  0.33749227)
    17a ->  22a  :     0.390985 (c= -0.62528822)
    18a ->  21a  :     0.385953 (c= -0.62125114)
    18a ->  22a  :     0.102302 (c= -0.31984730)

STATE  8:  E=   0.287046 au      7.811 eV    62999.3 cm**-1 <S**2> =   0.000000
    17a ->  21a  :     0.495353 (c=  0.70381310)
    18a ->  22a  :     0.495012 (c=  0.70357076)

STATE  9:  E=   0.313152 au      8.521 eV    68729.0 cm**-1 <S**2> =   0.000000
    19a ->  23a  :     0.717334 (c= -0.84695571)
    20a ->  23a  :     0.271685 (c=  0.52123391)

STATE 10:  E=   0.313175 au      8.522 eV    68734.0 cm**-1 <S**2> =   0.000000
    19a ->  23a  :     0.271689 (c=  0.52123802)
    20a ->  23a  :     0.717358 (c=  0.84696987)


------------------------------------------
NATURAL TRANSITION ORBITALS FOR STATE    1
------------------------------------------

Making the (pseudo)densities                       ... done
Solving eigenvalue problem for the occupied space  ... done
Solving eigenvalue problem for the virtual space   ... done
Natural Transition Orbitals were saved in Benzene.s1.nto
Threshold for printing occupation numbers 0.001000

 E=   0.198358 au      5.398 eV    43534.6 cm**-1
    20a ->  21a  : n=  0.49919627
    19a ->  22a  : n=  0.49900373


------------------------------------------
NATURAL TRANSITION ORBITALS FOR STATE    2
------------------------------------------

Making the (pseudo)densities                       ... done
Solving eigenvalue problem for the occupied space  ... done
Solving eigenvalue problem for the virtual space   ... done
Natural Transition Orbitals were saved in Benzene.s2.nto
Threshold for printing occupation numbers 0.001000

 E=   0.234063 au      6.369 eV    51370.9 cm**-1
    20a ->  21a  : n=  0.48715829
    19a ->  22a  : n=  0.48563618
    18a ->  23a  : n=  0.00409599
    17a ->  24a  : n=  0.00382576
    16a ->  25a  : n=  0.00381446
    15a ->  26a  : n=  0.00280466
    14a ->  27a  : n=  0.00228572
    13a ->  28a  : n=  0.00227733
    12a ->  29a  : n=  0.00152100
    11a ->  30a  : n=  0.00151790
    10a ->  31a  : n=  0.00133181
     9a ->  32a  : n=  0.00107630


------------------------------------------
NATURAL TRANSITION ORBITALS FOR STATE    3
------------------------------------------

Making the (pseudo)densities                       ... done
Solving eigenvalue problem for the occupied space  ... done
Solving eigenvalue problem for the virtual space   ... done
Natural Transition Orbitals were saved in Benzene.s3.nto
Threshold for printing occupation numbers 0.001000

 E=   0.272734 au      7.421 eV    59858.2 cm**-1
    20a ->  21a  : n=  0.47134628
    19a ->  22a  : n=  0.46872836
    18a ->  23a  : n=  0.01134133
    17a ->  24a  : n=  0.01089411
    16a ->  25a  : n=  0.01045339
    15a ->  26a  : n=  0.00706169
    14a ->  27a  : n=  0.00554280
    13a ->  28a  : n=  0.00537106
    12a ->  29a  : n=  0.00389240
    11a ->  30a  : n=  0.00306519
    10a ->  31a  : n=  0.00124015


------------------------------------------
NATURAL TRANSITION ORBITALS FOR STATE    4
------------------------------------------

Making the (pseudo)densities                       ... done
Solving eigenvalue problem for the occupied space  ... done
Solving eigenvalue problem for the virtual space   ... done
Natural Transition Orbitals were saved in Benzene.s4.nto
Threshold for printing occupation numbers 0.001000

 E=   0.272777 au      7.423 eV    59867.6 cm**-1
    20a ->  21a  : n=  0.47171690
    19a ->  22a  : n=  0.46828954
    18a ->  23a  : n=  0.01160648
    17a ->  24a  : n=  0.01048348
    16a ->  25a  : n=  0.01020751
    15a ->  26a  : n=  0.00760136
    14a ->  27a  : n=  0.00600475
    13a ->  28a  : n=  0.00591755
    12a ->  29a  : n=  0.00308031
    11a ->  30a  : n=  0.00205085
    10a ->  31a  : n=  0.00124160


------------------------------------------
NATURAL TRANSITION ORBITALS FOR STATE    5
------------------------------------------

Making the (pseudo)densities                       ... done
Solving eigenvalue problem for the occupied space  ... done
Solving eigenvalue problem for the virtual space   ... done
Natural Transition Orbitals were saved in Benzene.s5.nto
Threshold for printing occupation numbers 0.001000

 E=   0.282698 au      7.693 eV    62045.0 cm**-1
    20a ->  21a  : n=  0.50115583
    19a ->  22a  : n=  0.49318549
    18a ->  23a  : n=  0.00553640


------------------------------------------
NATURAL TRANSITION ORBITALS FOR STATE    6
------------------------------------------

Making the (pseudo)densities                       ... done
Solving eigenvalue problem for the occupied space  ... done
Solving eigenvalue problem for the virtual space   ... done
Natural Transition Orbitals were saved in Benzene.s6.nto
Threshold for printing occupation numbers 0.001000

 E=   0.286535 au      7.797 eV    62887.1 cm**-1
    20a ->  21a  : n=  0.50417557
    19a ->  22a  : n=  0.49049016
    18a ->  23a  : n=  0.00342239
    17a ->  24a  : n=  0.00117467


------------------------------------------
NATURAL TRANSITION ORBITALS FOR STATE    7
------------------------------------------

Making the (pseudo)densities                       ... done
Solving eigenvalue problem for the occupied space  ... done
Solving eigenvalue problem for the virtual space   ... done
Natural Transition Orbitals were saved in Benzene.s7.nto
Threshold for printing occupation numbers 0.001000

 E=   0.286541 au      7.797 eV    62888.4 cm**-1
    20a ->  21a  : n=  0.50989582
    19a ->  22a  : n=  0.48478203
    18a ->  23a  : n=  0.00342176
    17a ->  24a  : n=  0.00115065


------------------------------------------
NATURAL TRANSITION ORBITALS FOR STATE    8
------------------------------------------

Making the (pseudo)densities                       ... done
Solving eigenvalue problem for the occupied space  ... done
Solving eigenvalue problem for the virtual space   ... done
Natural Transition Orbitals were saved in Benzene.s8.nto
Threshold for printing occupation numbers 0.001000

 E=   0.287046 au      7.811 eV    62999.3 cm**-1
    20a ->  21a  : n=  0.51150113
    19a ->  22a  : n=  0.48367833
    18a ->  23a  : n=  0.00289966


------------------------------------------
NATURAL TRANSITION ORBITALS FOR STATE    9
------------------------------------------

Making the (pseudo)densities                       ... done
Solving eigenvalue problem for the occupied space  ... done
Solving eigenvalue problem for the virtual space   ... done
Natural Transition Orbitals were saved in Benzene.s9.nto
Threshold for printing occupation numbers 0.001000

 E=   0.313152 au      8.521 eV    68729.0 cm**-1
    20a ->  21a  : n=  0.98979099
    19a ->  22a  : n=  0.00412469
    18a ->  23a  : n=  0.00270008
    17a ->  24a  : n=  0.00212383


------------------------------------------
NATURAL TRANSITION ORBITALS FOR STATE   10
------------------------------------------

Making the (pseudo)densities                       ... done
Solving eigenvalue problem for the occupied space  ... done
Solving eigenvalue problem for the virtual space   ... done
Natural Transition Orbitals were saved in Benzene.s10.nto
Threshold for printing occupation numbers 0.001000

 E=   0.313175 au      8.522 eV    68734.0 cm**-1
    20a ->  21a  : n=  0.98981683
    19a ->  22a  : n=  0.00411465
    18a ->  23a  : n=  0.00267933
    17a ->  24a  : n=  0.00213418


-----------------------------
TD-DFT/TDA-EXCITATION SPECTRA
-----------------------------

Center of mass = (  0.0090, -0.0104,  0.0009)
Calculating the Dipole integrals                  ... done
Transforming integrals                            ... done
Calculating the Linear Momentum integrals         ... done
Transforming integrals                            ... done
Calculating angular momentum integrals            ... done
Transforming integrals                            ... done

-----------------------------------------------------------------------------
         ABSORPTION SPECTRUM VIA TRANSITION ELECTRIC DIPOLE MOMENTS
-----------------------------------------------------------------------------
State   Energy    Wavelength  fosc         T2        TX        TY        TZ  
        (cm-1)      (nm)                 (au**2)    (au)      (au)      (au) 
-----------------------------------------------------------------------------
   1   43534.6    229.7   0.000000017   0.00000  -0.00033   0.00013  -0.00001
   2   51370.9    194.7   0.000000481   0.00000   0.00156   0.00081  -0.00007
   3   59858.2    167.1   1.087369886   5.98038  -0.58110  -2.37531  -0.02466
   4   59867.6    167.0   1.086609216   5.97526  -2.37427   0.58141  -0.00685
   5   62045.0    161.2   0.000000293   0.00000  -0.00041   0.00116  -0.00021
   6   62887.1    159.0   0.000000257   0.00000  -0.00035   0.00025  -0.00107
   7   62888.4    159.0   0.000000784   0.00000  -0.00022  -0.00026  -0.00200
   8   62999.3    158.7   0.005438179   0.02842   0.00165   0.00168  -0.16856
   9   68729.0    145.5   0.000000004   0.00000  -0.00008   0.00011   0.00000
  10   68734.0    145.5   0.000000004   0.00000   0.00011   0.00008   0.00000

-----------------------------------------------------------------------------
         ABSORPTION SPECTRUM VIA TRANSITION VELOCITY DIPOLE MOMENTS
-----------------------------------------------------------------------------
State   Energy    Wavelength   fosc        P2         PX        PY        PZ  
        (cm-1)      (nm)                 (au**2)     (au)      (au)      (au) 
-----------------------------------------------------------------------------
   1   43534.6    229.7   0.000000073   0.00000   0.00011  -0.00010   0.00000
   2   51370.9    194.7   0.000000160   0.00000  -0.00023   0.00004   0.00002
   3   59858.2    167.1   0.186323308   0.07623   0.06540   0.26822   0.00278
   4   59867.6    167.0   0.185581347   0.07593   0.26768  -0.06541   0.00078
   5   62045.0    161.2   0.000000073   0.00000   0.00005  -0.00014   0.00009
   6   62887.1    159.0   0.000000259   0.00000   0.00004  -0.00003   0.00033
   7   62888.4    159.0   0.000000853   0.00000   0.00002   0.00003   0.00060
   8   62999.3    158.7   0.006406494   0.00276  -0.00038  -0.00050   0.05252
   9   68729.0    145.5   0.000000001   0.00000   0.00001  -0.00002  -0.00000
  10   68734.0    145.5   0.000000001   0.00000  -0.00002  -0.00001  -0.00000

-------------------------------------------------------------------
                             CD SPECTRUM
-------------------------------------------------------------------
State  Energy     Wavelength     R         MX        MY        MZ   
       (cm-1)       (nm)     (1e40*cgs)   (au)      (au)      (au)  
-------------------------------------------------------------------
   1   43534.6    229.7     -0.00000  -0.00000  -0.00000   0.00000
   2   51370.9    194.7     -0.00000   0.00000  -0.00000   0.00001
   3   59858.2    167.1     -0.00060   0.00000   0.00000   0.00000
   4   59867.6    167.0      0.00062  -0.00000   0.00000   0.00000
   5   62045.0    161.2      0.00001  -0.00000   0.00001   0.00000
   6   62887.1    159.0      0.00000  -0.00001   0.00001   0.00001
   7   62888.4    159.0     -0.00000  -0.00001  -0.00001   0.00000
   8   62999.3    158.7      0.00000  -0.00000  -0.00000  -0.00000
   9   68729.0    145.5     -0.00231  -0.18532  -0.16773  -0.00245
  10   68734.0    145.5      0.00232   0.16762  -0.18517  -0.00084

-------------------------------------------------------------------
         CD SPECTRUM VIA TRANSITION VELOCITY DIPOLE MOMENTS        
-------------------------------------------------------------------
State  Energy     Wavelength     R         MX        MY        MZ   
       (cm-1)       (nm)     (1e40*cgs)   (au)      (au)      (au)  
-------------------------------------------------------------------
   1   43534.6    229.7      0.00000  -0.00000  -0.00000   0.00000
   2   51370.9    194.7      0.00000   0.00000  -0.00000   0.00001
   3   59858.2    167.1      0.00025   0.00000   0.00000   0.00000
   4   59867.6    167.0     -0.00026  -0.00000   0.00000   0.00000
   5   62045.0    161.2     -0.00000  -0.00000   0.00001   0.00000
   6   62887.1    159.0      0.00000  -0.00001   0.00001   0.00001
   7   62888.4    159.0      0.00000  -0.00001  -0.00001   0.00000
   8   62999.3    158.7     -0.00000  -0.00000  -0.00000  -0.00000
   9   68729.0    145.5      0.00136  -0.18532  -0.16773  -0.00245
  10   68734.0    145.5     -0.00136   0.16762  -0.18517  -0.00084

Total run time:        7.821 sec

           *** ORCA-CIS/TD-DFT FINISHED WITHOUT ERROR ***

Maximum memory used throughout the entire CIS-calculation: 46.1 MB

-----------------------
CIS/TD-DFT TOTAL ENERGY
-----------------------

    E(SCF)  =   -231.967897271 Eh
    DE(CIS) =      0.198358024 Eh (Root  1)
    ----------------------------- ---------
    E(tot)  =   -231.769539247 Eh


-------------------------   --------------------
FINAL SINGLE POINT ENERGY      -231.769539246948
-------------------------   --------------------

                                *** OPTIMIZATION RUN DONE ***

                            ***************************************
                            *     ORCA property calculations      *
                            ***************************************

                                    ---------------------
                                    Active property flags
                                    ---------------------
   (+) Dipole Moment


------------------------------------------------------------------------------
                       ORCA ELECTRIC PROPERTIES CALCULATION
------------------------------------------------------------------------------

Dipole Moment Calculation                       ... on
Quadrupole Moment Calculation                   ... off
Polarizability Calculation                      ... off
GBWName                                         ... Benzene.gbw
Electron density                                ... Benzene.scfp
The origin for moment calculation is the CENTER OF MASS  = ( 0.009031, -0.010385  0.000946)

-------------
DIPOLE MOMENT
-------------
                                X             Y             Z
Electronic contribution:      0.00000       0.00002       0.00000
Nuclear contribution   :      0.00000      -0.00001       0.00000
                        -----------------------------------------
Total Dipole Moment    :      0.00000       0.00000       0.00000
                        -----------------------------------------
Magnitude (a.u.)       :      0.00000
Magnitude (Debye)      :      0.00001



--------------------
Rotational spectrum 
--------------------
 
Rotational constants in cm-1:     0.183028     0.183011     0.091510 
Rotational constants in MHz :  5487.049306  5486.539650  2743.397234 

 Dipole components along the rotational axes: 
x,y,z [a.u.] :    -0.000002    -0.000002     0.000000 
x,y,z [Debye]:    -0.000005    -0.000006     0.000000 

 

                        *** CIS RELAXED DENSITY ***

------------------------------------------------------------------------------
                       ORCA ELECTRIC PROPERTIES CALCULATION
------------------------------------------------------------------------------

Dipole Moment Calculation                       ... on
Quadrupole Moment Calculation                   ... off
Polarizability Calculation                      ... off
GBWName                                         ... Benzene.gbw
Electron density                                ... Benzene.cisp
The origin for moment calculation is the CENTER OF MASS  = ( 0.009031, -0.010385  0.000946)

-------------
DIPOLE MOMENT
-------------
                                X             Y             Z
Electronic contribution:     -0.00000       0.00001       0.00000
Nuclear contribution   :      0.00000      -0.00001       0.00000
                        -----------------------------------------
Total Dipole Moment    :     -0.00000      -0.00000       0.00000
                        -----------------------------------------
Magnitude (a.u.)       :      0.00000
Magnitude (Debye)      :      0.00000



--------------------
Rotational spectrum 
--------------------
 
Rotational constants in cm-1:     0.183028     0.183011     0.091510 
Rotational constants in MHz :  5487.049306  5486.539650  2743.397234 

 Dipole components along the rotational axes: 
x,y,z [a.u.] :     0.000000     0.000001     0.000000 
x,y,z [Debye]:     0.000001     0.000002     0.000001 

 
--------------------------------------------------------------------------
WARNING: There was an error initializing an OpenFabrics device.

  Local host:   kennedy74
  Local device: mlx5_0
--------------------------------------------------------------------------
[kennedy74:47579] 15 more processes have sent help message help-mpi-btl-openib.txt / error in device init
[kennedy74:47579] Set MCA parameter "orte_base_help_aggregate" to 0 to see all help / error messages

Timings for individual modules:

Sum of individual times         ...      105.532 sec (=   1.759 min)
GTO integral calculation        ...       11.013 sec (=   0.184 min)  10.4 %
SCF iterations                  ...       30.010 sec (=   0.500 min)  28.4 %
CIS module                      ...       34.598 sec (=   0.577 min)  32.8 %
SCF Gradient evaluation         ...       29.035 sec (=   0.484 min)  27.5 %
Geometry relaxation             ...        0.876 sec (=   0.015 min)   0.8 %
                             ****ORCA TERMINATED NORMALLY****
TOTAL RUN TIME: 0 days 0 hours 1 minutes 55 seconds 575 msec
