
                                 *****************
                                 * O   R   C   A *
                                 *****************

                                            #,                                       
                                            ###                                      
                                            ####                                     
                                            #####                                    
                                            ######                                   
                                           ########,                                 
                                     ,,################,,,,,                         
                               ,,#################################,,                 
                          ,,##########################################,,             
                       ,#########################################, ''#####,          
                    ,#############################################,,   '####,        
                  ,##################################################,,,,####,       
                ,###########''''           ''''###############################       
              ,#####''   ,,,,##########,,,,          '''####'''          '####       
            ,##' ,,,,###########################,,,                        '##       
           ' ,,###''''                  '''############,,,                           
         ,,##''                                '''############,,,,        ,,,,,,###''
      ,#''                                            '''#######################'''  
     '                                                          ''''####''''         
             ,#######,   #######,   ,#######,      ##                                
            ,#'     '#,  ##    ##  ,#'     '#,    #''#        ######   ,####,        
            ##       ##  ##   ,#'  ##            #'  '#       #        #'  '#        
            ##       ##  #######   ##           ,######,      #####,   #    #        
            '#,     ,#'  ##    ##  '#,     ,#' ,#      #,         ##   #,  ,#        
             '#######'   ##     ##  '#######'  #'      '#     #####' # '####'        



                  #######################################################
                  #                        -***-                        #
                  #          Department of theory and spectroscopy      #
                  #    Directorship and core code : Frank Neese         #
                  #        Max Planck Institute fuer Kohlenforschung    #
                  #                Kaiser Wilhelm Platz 1               #
                  #                 D-45470 Muelheim/Ruhr               #
                  #                      Germany                        #
                  #                                                     #
                  #                  All rights reserved                #
                  #                        -***-                        #
                  #######################################################


                         Program Version 5.0.3 -  RELEASE  -


 With contributions from (in alphabetic order):
   Daniel Aravena         : Magnetic Suceptibility
   Michael Atanasov       : Ab Initio Ligand Field Theory (pilot matlab implementation)
   Alexander A. Auer      : GIAO ZORA, VPT2 properties, NMR spectrum
   Ute Becker             : Parallelization
   Giovanni Bistoni       : ED, misc. LED, open-shell LED, HFLD
   Martin Brehm           : Molecular dynamics
   Dmytro Bykov           : SCF Hessian
   Vijay G. Chilkuri      : MRCI spin determinant printing, contributions to CSF-ICE
   Dipayan Datta          : RHF DLPNO-CCSD density
   Achintya Kumar Dutta   : EOM-CC, STEOM-CC
   Dmitry Ganyushin       : Spin-Orbit,Spin-Spin,Magnetic field MRCI
   Miquel Garcia          : C-PCM and meta-GGA Hessian, CC/C-PCM, Gaussian charge scheme
   Yang Guo               : DLPNO-NEVPT2, F12-NEVPT2, CIM, IAO-localization
   Andreas Hansen         : Spin unrestricted coupled pair/coupled cluster methods
   Benjamin Helmich-Paris : MC-RPA, TRAH-SCF, COSX integrals
   Lee Huntington         : MR-EOM, pCC
   Robert Izsak           : Overlap fitted RIJCOSX, COSX-SCS-MP3, EOM
   Marcus Kettner         : VPT2
   Christian Kollmar      : KDIIS, OOCD, Brueckner-CCSD(T), CCSD density, CASPT2, CASPT2-K
   Simone Kossmann        : Meta GGA functionals, TD-DFT gradient, OOMP2, MP2 Hessian
   Martin Krupicka        : Initial AUTO-CI
   Lucas Lang             : DCDCAS
   Marvin Lechner         : AUTO-CI (C++ implementation), FIC-MRCC
   Dagmar Lenk            : GEPOL surface, SMD
   Dimitrios Liakos       : Extrapolation schemes; Compound Job, initial MDCI parallelization
   Dimitrios Manganas     : Further ROCIS development; embedding schemes
   Dimitrios Pantazis     : SARC Basis sets
   Anastasios Papadopoulos: AUTO-CI, single reference methods and gradients
   Taras Petrenko         : DFT Hessian,TD-DFT gradient, ASA, ECA, R-Raman, ABS, FL, XAS/XES, NRVS
   Peter Pinski           : DLPNO-MP2, DLPNO-MP2 Gradient
   Christoph Reimann      : Effective Core Potentials
   Marius Retegan         : Local ZFS, SOC
   Christoph Riplinger    : Optimizer, TS searches, QM/MM, DLPNO-CCSD(T), (RO)-DLPNO pert. Triples
   Tobias Risthaus        : Range-separated hybrids, TD-DFT gradient, RPA, STAB
   Michael Roemelt        : Original ROCIS implementation
   Masaaki Saitow         : Open-shell DLPNO-CCSD energy and density
   Barbara Sandhoefer     : DKH picture change effects
   Avijit Sen             : IP-ROCIS
   Kantharuban Sivalingam : CASSCF convergence, NEVPT2, FIC-MRCI
   Bernardo de Souza      : ESD, SOC TD-DFT
   Georgi Stoychev        : AutoAux, RI-MP2 NMR, DLPNO-MP2 response
   Willem Van den Heuvel  : Paramagnetic NMR
   Boris Wezisla          : Elementary symmetry handling
   Frank Wennmohs         : Technical directorship


 We gratefully acknowledge several colleagues who have allowed us to
 interface, adapt or use parts of their codes:
   Stefan Grimme, W. Hujo, H. Kruse, P. Pracht,  : VdW corrections, initial TS optimization,
                  C. Bannwarth, S. Ehlert          DFT functionals, gCP, sTDA/sTD-DF
   Ed Valeev, F. Pavosevic, A. Kumar             : LibInt (2-el integral package), F12 methods
   Garnet Chan, S. Sharma, J. Yang, R. Olivares  : DMRG
   Ulf Ekstrom                                   : XCFun DFT Library
   Mihaly Kallay                                 : mrcc  (arbitrary order and MRCC methods)
   Jiri Pittner, Ondrej Demel                    : Mk-CCSD
   Frank Weinhold                                : gennbo (NPA and NBO analysis)
   Christopher J. Cramer and Donald G. Truhlar   : smd solvation model
   Lars Goerigk                                  : TD-DFT with DH, B97 family of functionals
   V. Asgeirsson, H. Jonsson                     : NEB implementation
   FAccTs GmbH                                   : IRC, NEB, NEB-TS, DLPNO-Multilevel, CI-OPT
                                                   MM, QMMM, 2- and 3-layer-ONIOM, Crystal-QMMM,
                                                   LR-CPCM, SF, NACMEs, symmetry and pop. for TD-DFT,
                                                   nearIR, NL-DFT gradient (VV10), updates on ESD,
                                                   ML-optimized integration grids
   S Lehtola, MJT Oliveira, MAL Marques          : LibXC Library
   Liviu Ungur et al                             : ANISO software


 Your calculation uses the libint2 library for the computation of 2-el integrals
 For citations please refer to: http://libint.valeyev.net

 Your ORCA version has been built with support for libXC version: 5.1.0
 For citations please refer to: https://tddft.org/programs/libxc/

 This ORCA versions uses:
   CBLAS   interface :  Fast vector & matrix operations
   LAPACKE interface :  Fast linear algebra routines
   SCALAPACK package :  Parallel linear algebra routines
   Shared memory     :  Shared parallel matrices
   BLAS/LAPACK       :  OpenBLAS 0.3.15  USE64BITINT DYNAMIC_ARCH NO_AFFINITY SkylakeX SINGLE_THREADED
        Core in use  :  SkylakeX
   Copyright (c) 2011-2014, The OpenBLAS Project


================================================================================

----- Orbital basis set information -----
Your calculation utilizes the basis: cc-pVDZ 
       H, B-Ne : Obtained from the ccRepo (grant-hill.group.shef.ac.uk/ccrepo) Feb. 2017
                 T. H. Dunning, Jr., J. Chem. Phys. 90, 1007 (1989)
            He : Obtained from the ccRepo (grant-hill.group.shef.ac.uk/ccrepo) Feb. 2017
                 D. E. Woon, T. H. Dunning, Jr., J. Chem. Phys. 100, 2975 (1994)
  Li-Be, Na-Mg : Obtained from the ccRepo (grant-hill.group.shef.ac.uk/ccrepo) Feb. 2017
                 B. P. Prascher, D. E. Woon, K. A. Peterson, T. H. Dunning, Jr., A. K. Wilson, Theor. Chem. Acc. 128, 69 (2011)
         Al-Ar : Obtained from the ccRepo (grant-hill.group.shef.ac.uk/ccrepo) Feb. 2017
                 D. E. Woon, T. H. Dunning, Jr., J. Chem. Phys. 98, 1358 (1993)
            Ca : Obtained from the Peterson Research Group Website (tyr0.chem.wsu.edu/~kipeters) Feb. 2017
                 J. Koput, K. A. Peterson, J. Phys. Chem. 106, 9595 (2002)
         Sc-Zn : Obtained from the ccRepo (grant-hill.group.shef.ac.uk/ccrepo) Feb. 2017
                 N. B. Balabanov, K. A. Peterson, J. Chem. Phys. 123, 064107 (2005)
                 N. B. Balabanov, K. A. Peterson, J. Chem. Phys. 125, 074110 (2006)
         Ga-Kr : Obtained from the ccRepo (grant-hill.group.shef.ac.uk/ccrepo) Feb. 2017
                 A. K. Wilson, D. E. Woon, K. A. Peterson, T. H. Dunning, Jr., J. Chem. Phys. 110, 7667 (1999)

----- AuxC basis set information -----
Your calculation utilizes the auxiliary basis: cc-pVDZ/C 
  H-He, B, Ne, Al-Ar, Ga-Br : Obtained from the EMSL Basis Set Exchange (bse.pnl.gov) Feb. 2017
                              F. Weigend, A. Kohn, C. Hattig, J. Chem. Phys. 116, 3175 (2002)
               Li-Be, Na-Mg : Obtained from the EMSL Basis Set Exchange (bse.pnl.gov) Feb. 2017
                              C. Haettig, Phys. Chem. Chem. Phys. 7, 59 (2005)
                        C-F : Obtained from the EMSL Basis Set Exchange (bse.pnl.gov) Feb. 2017
                              C. Haettig, Phys. Chem. Chem. Phys. 7, 59 (2005)
                              F. Weigend, A. Kohn, C. Hattig, J. Chem. Phys. 116, 3175 (2002)
                         Kr : Obtained from the TURBOMOLE 7.0 basis set library
                              F. Weigend, A. Kohn, C. Hattig, J. Chem. Phys. 116, 3175 (2002)
                              S function revised in Sep. 2009

================================================================================
                                        WARNINGS
                       Please study these warnings very carefully!
================================================================================


WARNING: Post HF methods need fully converged wavefunctions
  ===> : Setting SCFConvForced true
         You can overwrite this default with %scf ConvForced false 


WARNING: MDCI localization with Augmented Hessian Foster-Boys
  ===> : Switching off randomization!

INFO   : the flag for use of the SHARK integral package has been found!

================================================================================
                                       INPUT FILE
================================================================================
NAME = QA_PF.inp
|  1> ! STEOM-DLPNO-CCSD NOCOSX cc-pVDZ/C cc-pVDZ NormalPNO TightSCF
|  2> %Pal NProcs 8 end
|  3> %MaxCore 5000
|  4> %SCF
|  5>     AutoTRAH    True
|  6>     CNVDamp     False
|  7>     CNVZerner   False
|  8>     end
|  9> %mdci
| 10>     MaxIter     200
| 11>     NRoots      2
| 12>     DoTriplet   true
| 13>     STEOMSOC    false
| 14>     DoDbfilter  false
| 15>     DoSTEOMNatTransOrb  True
| 16>     DoStoreSTEOM        True
| 17>     end
| 18> *xyz 0 1
| 19> C             4.68216000     2.46369000    -0.93778000
| 20> C             4.06346000     3.67035000    -0.59965000
| 21> C             2.76491000     3.64530000    -0.12994000
| 22> C             2.08756000     2.43388000     0.04788000
| 23> C             2.74194000     1.21667000    -0.21377000
| 24> C             4.03548000     1.25257000    -0.75598000
| 25> N             2.06526000    -0.00000000     0.00000000
| 26> C             2.74194000    -1.21667000     0.21377000
| 27> C             0.67600000     0.00000000     0.00000000
| 28> C            -0.04373000     1.19344000     0.19857000
| 29> C            -1.43535000     1.17426000     0.20383000
| 30> C            -2.16259000     0.00000000    -0.00000000
| 31> C            -1.43535000    -1.17425000    -0.20383000
| 32> C            -0.04373000    -1.19344000    -0.19857000
| 33> C             4.68215000    -2.46369000     0.93778000
| 34> C             4.03548000    -1.25258000     0.75599000
| 35> C             2.08756000    -2.43388000    -0.04788000
| 36> C             2.76491000    -3.64530000     0.12993000
| 37> C             4.06346000    -3.67035000     0.59965000
| 38> C             0.65706000     2.47191000     0.39213000
| 39> C             0.65706000    -2.47190000    -0.39214000
| 40> O             0.08168000    -3.49854000    -0.72836000
| 41> O             0.08168000     3.49855000     0.72835000
| 42> C            -3.63859000     0.00000000    -0.00000000
| 43> C            -4.35567000     0.84874000     0.85223000
| 44> C            -5.74426000     0.85605000     0.85745000
| 45> C            -6.41881000    -0.00000000     0.00000000
| 46> C            -5.74426000    -0.85605000    -0.85745000
| 47> C            -4.35567000    -0.84874000    -0.85223000
| 48> F            -7.75790000    -0.00000000     0.00000000
| 49> H             5.67978000     2.46557000    -1.36660000
| 50> H             4.58370000     4.61230000    -0.73837000
| 51> H             2.21269000     4.55228000     0.09519000
| 52> H             4.52209000     0.33426000    -1.05990000
| 53> H            -1.93192000     2.12834000     0.35456000
| 54> H            -1.93192000    -2.12833000    -0.35456000
| 55> H             5.67978000    -2.46557000     1.36661000
| 56> H             4.52208000    -0.33426000     1.05991000
| 57> H             2.21270000    -4.55228000    -0.09520000
| 58> H             4.58369000    -4.61230000     0.73837000
| 59> H            -3.81980000     1.49714000     1.53896000
| 60> H            -6.30712000     1.50410000     1.52018000
| 61> H            -6.30712000    -1.50410000    -1.52018000
| 62> H            -3.81980000    -1.49713000    -1.53896000
| 63> **                         ****END OF INPUT****
================================================================================

                       ****************************
                       * Single Point Calculation *
                       ****************************

---------------------------------
CARTESIAN COORDINATES (ANGSTROEM)
---------------------------------
  C      4.682160    2.463690   -0.937780
  C      4.063460    3.670350   -0.599650
  C      2.764910    3.645300   -0.129940
  C      2.087560    2.433880    0.047880
  C      2.741940    1.216670   -0.213770
  C      4.035480    1.252570   -0.755980
  N      2.065260   -0.000000    0.000000
  C      2.741940   -1.216670    0.213770
  C      0.676000    0.000000    0.000000
  C     -0.043730    1.193440    0.198570
  C     -1.435350    1.174260    0.203830
  C     -2.162590    0.000000   -0.000000
  C     -1.435350   -1.174250   -0.203830
  C     -0.043730   -1.193440   -0.198570
  C      4.682150   -2.463690    0.937780
  C      4.035480   -1.252580    0.755990
  C      2.087560   -2.433880   -0.047880
  C      2.764910   -3.645300    0.129930
  C      4.063460   -3.670350    0.599650
  C      0.657060    2.471910    0.392130
  C      0.657060   -2.471900   -0.392140
  O      0.081680   -3.498540   -0.728360
  O      0.081680    3.498550    0.728350
  C     -3.638590    0.000000   -0.000000
  C     -4.355670    0.848740    0.852230
  C     -5.744260    0.856050    0.857450
  C     -6.418810   -0.000000    0.000000
  C     -5.744260   -0.856050   -0.857450
  C     -4.355670   -0.848740   -0.852230
  F     -7.757900   -0.000000    0.000000
  H      5.679780    2.465570   -1.366600
  H      4.583700    4.612300   -0.738370
  H      2.212690    4.552280    0.095190
  H      4.522090    0.334260   -1.059900
  H     -1.931920    2.128340    0.354560
  H     -1.931920   -2.128330   -0.354560
  H      5.679780   -2.465570    1.366610
  H      4.522080   -0.334260    1.059910
  H      2.212700   -4.552280   -0.095200
  H      4.583690   -4.612300    0.738370
  H     -3.819800    1.497140    1.538960
  H     -6.307120    1.504100    1.520180
  H     -6.307120   -1.504100   -1.520180
  H     -3.819800   -1.497130   -1.538960

----------------------------
CARTESIAN COORDINATES (A.U.)
----------------------------
  NO LB      ZA    FRAG     MASS         X           Y           Z
   0 C     6.0000    0    12.011    8.848000    4.655699   -1.772147
   1 C     6.0000    0    12.011    7.678827    6.935956   -1.133174
   2 C     6.0000    0    12.011    5.224923    6.888619   -0.245551
   3 C     6.0000    0    12.011    3.944917    4.599367    0.090480
   4 C     6.0000    0    12.011    5.181516    2.299173   -0.403967
   5 C     6.0000    0    12.011    7.625952    2.367014   -1.428595
   6 N     7.0000    0    14.007    3.902776   -0.000000    0.000000
   7 C     6.0000    0    12.011    5.181516   -2.299173    0.403967
   8 C     6.0000    0    12.011    1.277455    0.000000    0.000000
   9 C     6.0000    0    12.011   -0.082638    2.255275    0.375243
  10 C     6.0000    0    12.011   -2.712418    2.219030    0.385183
  11 C     6.0000    0    12.011   -4.086703    0.000000   -0.000000
  12 C     6.0000    0    12.011   -2.712418   -2.219011   -0.385183
  13 C     6.0000    0    12.011   -0.082638   -2.255275   -0.375243
  14 C     6.0000    0    12.011    8.847981   -4.655699    1.772147
  15 C     6.0000    0    12.011    7.625952   -2.367033    1.428614
  16 C     6.0000    0    12.011    3.944917   -4.599367   -0.090480
  17 C     6.0000    0    12.011    5.224923   -6.888619    0.245532
  18 C     6.0000    0    12.011    7.678827   -6.935956    1.133174
  19 C     6.0000    0    12.011    1.241663    4.671233    0.741018
  20 C     6.0000    0    12.011    1.241663   -4.671214   -0.741037
  21 O     8.0000    0    15.999    0.154353   -6.611282   -1.376401
  22 O     8.0000    0    15.999    0.154353    6.611301    1.376382
  23 C     6.0000    0    12.011   -6.875939    0.000000   -0.000000
  24 C     6.0000    0    12.011   -8.231023    1.603886    1.610481
  25 C     6.0000    0    12.011  -10.855078    1.617700    1.620346
  26 C     6.0000    0    12.011  -12.129793   -0.000000    0.000000
  27 C     6.0000    0    12.011  -10.855078   -1.617700   -1.620346
  28 C     6.0000    0    12.011   -8.231023   -1.603886   -1.610481
  29 F     9.0000    0    18.998  -14.660306   -0.000000    0.000000
  30 H     1.0000    0     1.008   10.733229    4.659252   -2.582500
  31 H     1.0000    0     1.008    8.661938    8.715984   -1.395317
  32 H     1.0000    0     1.008    4.181378    8.602562    0.179883
  33 H     1.0000    0     1.008    8.545512    0.631660   -2.002921
  34 H     1.0000    0     1.008   -3.650800    4.021980    0.670021
  35 H     1.0000    0     1.008   -3.650800   -4.021961   -0.670021
  36 H     1.0000    0     1.008   10.733229   -4.659252    2.582519
  37 H     1.0000    0     1.008    8.545493   -0.631660    2.002940
  38 H     1.0000    0     1.008    4.181397   -8.602562   -0.179902
  39 H     1.0000    0     1.008    8.661919   -8.715984    1.395317
  40 H     1.0000    0     1.008   -7.218376    2.829185    2.908213
  41 H     1.0000    0     1.008  -11.918729    2.842337    2.872724
  42 H     1.0000    0     1.008  -11.918729   -2.842337   -2.872724
  43 H     1.0000    0     1.008   -7.218376   -2.829166   -2.908213

--------------------------------
INTERNAL COORDINATES (ANGSTROEM)
--------------------------------
 C      0   0   0     0.000000000000     0.00000000     0.00000000
 C      1   0   0     1.397551409609     0.00000000     0.00000000
 C      2   1   0     1.381118057626   118.87238389     0.00000000
 C      3   2   1     1.399271736047   120.93434158     2.02247756
 C      4   3   2     1.406511319187   120.02474028     1.94405031
 C      1   2   3     1.384939679842   121.10256684   357.26929038
 N      5   4   3     1.408502511251   119.72209291   178.38301187
 C      7   5   4     1.408502511251   122.57365698   202.54590464
 C      7   5   4     1.389260000000   118.71317151    22.54590464
 C      9   7   5     1.407742999059   120.74814060   340.58819916
 C     10   9   7     1.391762107689   120.00416299   180.39631469
 C     11  10   9     1.396177364843   122.13155714   359.18224214
 C     12  11  10     1.396168954317   117.21727526     0.41133313
 C     13  12  11     1.391762245536   122.13217255     0.41157812
 C      8   7   5     2.417367205164   151.24111713    25.31358147
 C     15   8   7     1.384924952877    30.09469609     1.53573995
 C      8   7   5     1.406511319187   119.72209291   202.54590464
 C     17   8   7     1.399270465278   120.02485833   178.38256303
 C     18  17   8     1.381121458598   120.93418731     1.94495928
 C     10   9   7     1.470733707576   120.79006431     0.85703816
 C     14  13  12     1.470726330967   119.20475360   178.72923718
 O     21  14  13     1.223967206423   122.77120811     9.62086403
 O     20  10   9     1.223967206423   122.77128447   189.16440028
 C     12  11  10     1.476000000000   121.39125706   180.41141206
 C     24  12  11     1.400306854550   120.80299469   324.72981882
 C     25  24  12     1.388619052368   121.16842563   179.92785876
 C     26  25  24     1.386744319440   118.74046870     0.14168445
 C     27  26  25     1.386744319440   121.78797269   359.93011419
 C     28  27  26     1.388619052368   118.74046870   359.93011419
 F     27  26  25     1.339090000000   119.10601366   179.93011419
 H      1   2   3     1.085880191918   120.05098431   176.21170563
 H      2   1   3     1.084971289251   120.42343719   182.17782751
 H      3   2   1     1.085469099376   122.25619970   183.55013446
 H      6   1   2     1.082797263850   119.66727002   177.74478854
 H     11  10   9     1.086080081854   116.46075570   180.43851594
 H     13  12  11     1.086080081854   121.39524307   179.09382810
 H     15   8   7     1.085893328187   148.93084887     2.35511278
 H     16  15   8     1.082801250830   119.66825762   178.30748921
 H     18  17   8     1.085464012024   116.79345218   180.49701571
 H     19  18  17     1.084966494321   120.66739100   179.83849874
 H     25  24  12     1.085899309236   119.60992828   358.47250476
 H     26  25  24     1.084431295657   121.63252797   179.47317038
 H     28  27  26     1.084431295657   119.62365400   180.58489147
 H     29  28  27     1.085893338178   119.20607235   181.59170325

---------------------------
INTERNAL COORDINATES (A.U.)
---------------------------
 C      0   0   0     0.000000000000     0.00000000     0.00000000
 C      1   0   0     2.640989422237     0.00000000     0.00000000
 C      2   1   0     2.609934887526   118.87238389     0.00000000
 C      3   2   1     2.644240368065   120.93434158     2.02247756
 C      4   3   2     2.657921197523   120.02474028     1.94405031
 C      1   2   3     2.617156706901   121.10256684   357.26929038
 N      5   4   3     2.661684005204   119.72209291   178.38301187
 C      7   5   4     2.661684005204   122.57365698   202.54590464
 C      7   5   4     2.625320928811   118.71317151    22.54590464
 C      9   7   5     2.660248735167   120.74814060   340.58819916
 C     10   9   7     2.630049227102   120.00416299   180.39631469
 C     11  10   9     2.638392853933   122.13155714   359.18224214
 C     12  11  10     2.638376960343   117.21727526     0.41133313
 C     13  12  11     2.630049487595   122.13217255     0.41157812
 C      8   7   5     4.568161982882   151.24111713    25.31358147
 C     15   8   7     2.617128876970    30.09469609     1.53573995
 C      8   7   5     2.657921197523   119.72209291   202.54590464
 C     17   8   7     2.644237966660   120.02485833   178.38256303
 C     18  17   8     2.609941314432   120.93418731     1.94495928
 C     10   9   7     2.779283923245   120.79006431     0.85703816
 C     14  13  12     2.779269983475   119.20475360   178.72923718
 O     21  14  13     2.312962817041   122.77120811     9.62086403
 O     20  10   9     2.312962817041   122.77128447   189.16440028
 C     12  11  10     2.789235773668   121.39125706   180.41141206
 C     24  12  11     2.646196458552   120.80299469   324.72981882
 C     25  24  12     2.624109713321   121.16842563   179.92785876
 C     26  25  24     2.620566981513   118.74046870     0.14168445
 C     27  26  25     2.620566981513   121.78797269   359.93011419
 C     28  27  26     2.624109713321   118.74046870   359.93011419
 F     27  26  25     2.530513368673   119.10601366   179.93011419
 H      1   2   3     2.052016176975   120.05098431   176.21170563
 H      2   1   3     2.050298599853   120.42343719   182.17782751
 H      3   2   1     2.051239324655   122.25619970   183.55013446
 H      6   1   2     2.046190287235   119.66727002   177.74478854
 H     11  10   9     2.052393914211   116.46075570   180.43851594
 H     13  12  11     2.052393914211   121.39524307   179.09382810
 H     15   8   7     2.052041000925   148.93084887     2.35511278
 H     16  15   8     2.046197821537   119.66825762   178.30748921
 H     18  17   8     2.051229710953   116.79345218   180.49701571
 H     19  18  17     2.050289538748   120.66739100   179.83849874
 H     25  24  12     2.052052303471   119.60992828   358.47250476
 H     26  25  24     2.049278159845   121.63252797   179.47317038
 H     28  27  26     2.049278159845   119.62365400   180.58489147
 H     29  28  27     2.052041019807   119.20607235   181.59170325

---------------------
BASIS SET INFORMATION
---------------------
There are 5 groups of distinct atoms

 Group   1 Type C   : 17s4p1d contracted to 3s2p1d pattern {881/31/1}
 Group   2 Type N   : 17s4p1d contracted to 3s2p1d pattern {881/31/1}
 Group   3 Type O   : 17s4p1d contracted to 3s2p1d pattern {881/31/1}
 Group   4 Type F   : 17s4p1d contracted to 3s2p1d pattern {881/31/1}
 Group   5 Type H   : 4s1p contracted to 2s1p pattern {31/1}

Atom   0C    basis set group =>   1
Atom   1C    basis set group =>   1
Atom   2C    basis set group =>   1
Atom   3C    basis set group =>   1
Atom   4C    basis set group =>   1
Atom   5C    basis set group =>   1
Atom   6N    basis set group =>   2
Atom   7C    basis set group =>   1
Atom   8C    basis set group =>   1
Atom   9C    basis set group =>   1
Atom  10C    basis set group =>   1
Atom  11C    basis set group =>   1
Atom  12C    basis set group =>   1
Atom  13C    basis set group =>   1
Atom  14C    basis set group =>   1
Atom  15C    basis set group =>   1
Atom  16C    basis set group =>   1
Atom  17C    basis set group =>   1
Atom  18C    basis set group =>   1
Atom  19C    basis set group =>   1
Atom  20C    basis set group =>   1
Atom  21O    basis set group =>   3
Atom  22O    basis set group =>   3
Atom  23C    basis set group =>   1
Atom  24C    basis set group =>   1
Atom  25C    basis set group =>   1
Atom  26C    basis set group =>   1
Atom  27C    basis set group =>   1
Atom  28C    basis set group =>   1
Atom  29F    basis set group =>   4
Atom  30H    basis set group =>   5
Atom  31H    basis set group =>   5
Atom  32H    basis set group =>   5
Atom  33H    basis set group =>   5
Atom  34H    basis set group =>   5
Atom  35H    basis set group =>   5
Atom  36H    basis set group =>   5
Atom  37H    basis set group =>   5
Atom  38H    basis set group =>   5
Atom  39H    basis set group =>   5
Atom  40H    basis set group =>   5
Atom  41H    basis set group =>   5
Atom  42H    basis set group =>   5
Atom  43H    basis set group =>   5
---------------------------------
AUXILIARY/C BASIS SET INFORMATION
---------------------------------
There are 5 groups of distinct atoms

 Group   1 Type C   : 7s5p4d2f contracted to 7s5p4d2f pattern {1111111/11111/1111/11}
 Group   2 Type N   : 7s5p4d2f contracted to 7s5p4d2f pattern {1111111/11111/1111/11}
 Group   3 Type O   : 7s5p4d2f contracted to 7s5p4d2f pattern {1111111/11111/1111/11}
 Group   4 Type F   : 7s5p4d2f contracted to 7s5p4d2f pattern {1111111/11111/1111/11}
 Group   5 Type H   : 3s2p1d contracted to 3s2p1d pattern {111/11/1}

Atom   0C    basis set group =>   1
Atom   1C    basis set group =>   1
Atom   2C    basis set group =>   1
Atom   3C    basis set group =>   1
Atom   4C    basis set group =>   1
Atom   5C    basis set group =>   1
Atom   6N    basis set group =>   2
Atom   7C    basis set group =>   1
Atom   8C    basis set group =>   1
Atom   9C    basis set group =>   1
Atom  10C    basis set group =>   1
Atom  11C    basis set group =>   1
Atom  12C    basis set group =>   1
Atom  13C    basis set group =>   1
Atom  14C    basis set group =>   1
Atom  15C    basis set group =>   1
Atom  16C    basis set group =>   1
Atom  17C    basis set group =>   1
Atom  18C    basis set group =>   1
Atom  19C    basis set group =>   1
Atom  20C    basis set group =>   1
Atom  21O    basis set group =>   3
Atom  22O    basis set group =>   3
Atom  23C    basis set group =>   1
Atom  24C    basis set group =>   1
Atom  25C    basis set group =>   1
Atom  26C    basis set group =>   1
Atom  27C    basis set group =>   1
Atom  28C    basis set group =>   1
Atom  29F    basis set group =>   4
Atom  30H    basis set group =>   5
Atom  31H    basis set group =>   5
Atom  32H    basis set group =>   5
Atom  33H    basis set group =>   5
Atom  34H    basis set group =>   5
Atom  35H    basis set group =>   5
Atom  36H    basis set group =>   5
Atom  37H    basis set group =>   5
Atom  38H    basis set group =>   5
Atom  39H    basis set group =>   5
Atom  40H    basis set group =>   5
Atom  41H    basis set group =>   5
Atom  42H    basis set group =>   5
Atom  43H    basis set group =>   5
--------------------------------------------------------------------------
WARNING: There was an error initializing an OpenFabrics device.

  Local host:   kennedy150
  Local device: mlx5_0
--------------------------------------------------------------------------


           ************************************************************
           *        Program running with 8 parallel MPI-processes     *
           *              working on a common directory               *
           ************************************************************
------------------------------------------------------------------------------
                           ORCA GTO INTEGRAL CALCULATION
------------------------------------------------------------------------------
------------------------------------------------------------------------------
                   ___                                                        
                  /   \      - P O W E R E D   B Y -                         
                 /     \                                                     
                 |  |  |   _    _      __       _____    __    __             
                 |  |  |  | |  | |    /  \     |  _  \  |  |  /  |          
                  \  \/   | |  | |   /    \    | | | |  |  | /  /          
                 / \  \   | |__| |  /  /\  \   | |_| |  |  |/  /          
                |  |  |   |  __  | /  /__\  \  |    /   |      \           
                |  |  |   | |  | | |   __   |  |    \   |  |\   \          
                \     /   | |  | | |  |  |  |  | |\  \  |  | \   \       
                 \___/    |_|  |_| |__|  |__|  |_| \__\ |__|  \__/        
                                                                              
                      - O R C A' S   B I G   F R I E N D -                    
                                      &                                       
                       - I N T E G R A L  F E E D E R -                       
                                                                              
 v1 FN, 2020, v2 2021                                                         
------------------------------------------------------------------------------


Reading SHARK input file QA_PF.SHARKINP.tmp ... [kennedy150:42737] 7 more processes have sent help message help-mpi-btl-openib.txt / error in device init
[kennedy150:42737] Set MCA parameter "orte_base_help_aggregate" to 0 to see all help / error messages
ok
----------------------
SHARK INTEGRAL PACKAGE
----------------------

Number of atoms                             ...     44
Number of basis functions                   ...    670
Number of shells                            ...    402
Maximum angular momentum                    ...      2
Integral batch strategy                     ... SHARK/LIBINT Hybrid
RI-J (if used) integral strategy            ... SPLIT-RIJ (Revised 2003 algorithm where possible)
Printlevel                                  ...      1
Contraction scheme used                     ... PARTIAL GENERAL contraction
Coulomb Range Separation                    ... NOT USED
Exchange Range Separation                   ... NOT USED
Finite Nucleus Model                        ... NOT USED
Auxiliary Coulomb fitting basis             ... NOT available
Auxiliary J/K fitting basis                 ... NOT available
Auxiliary Correlation fitting basis         ... AVAILABLE
   # of basis functions in Aux-C            ...   1876
   # of shells in Aux-C                     ...    624
   Maximum angular momentum in Aux-C        ...      3
Auxiliary 'external' fitting basis          ... NOT available
Integral threshold                          ...     2.500000e-11
Primitive cut-off                           ...     2.500000e-12
Primitive pair pre-selection threshold      ...     2.500000e-12

Calculating pre-screening integrals         ... done (  0.1 sec) Dimension = 402
Calculating pre-screening integrals (ORCA)  ... done (  0.2 sec) Dimension = 222
Organizing shell pair data                  ... done (  0.4 sec)
Shell pair information
Total number of shell pairs                 ...     81003
Shell pairs after pre-screening             ...     32524
Total number of primitive shell pairs       ...    120427
Primitive shell pairs kept                  ...     42134
          la=0 lb=0:  13145 shell pairs
          la=1 lb=0:  11771 shell pairs
          la=1 lb=1:   1954 shell pairs
          la=2 lb=0:   3942 shell pairs
          la=2 lb=1:   1436 shell pairs
          la=2 lb=2:    276 shell pairs

Calculating one electron integrals          ... done (  0.3 sec)
Calculating RI/C V-Matrix + Cholesky decomp.... done (  1.9 sec)
Calculating Nuclear repulsion               ... done (  0.0 sec) ENN=   2603.706380533587 Eh

SHARK setup successfully completed in   6.9 seconds

Maximum memory used throughout the entire GTOINT-calculation: 45.5 MB
--------------------------------------------------------------------------
WARNING: There was an error initializing an OpenFabrics device.

  Local host:   kennedy150
  Local device: mlx5_0
--------------------------------------------------------------------------


           ************************************************************
           *        Program running with 8 parallel MPI-processes     *
           *              working on a common directory               *
           ************************************************************
-------------------------------------------------------------------------------
                                 ORCA SCF
-------------------------------------------------------------------------------

------------
SCF SETTINGS
------------
Hamiltonian:
 Ab initio Hamiltonian  Method          .... Hartree-Fock(GTOs)


General Settings:
 Integral files         IntName         .... QA_PF
 Hartree-Fock type      HFTyp           .... RHF
 Total Charge           Charge          ....    0
 Multiplicity           Mult            ....    1
 Number of Electrons    NEL             ....  202
 Basis Dimension        Dim             ....  490
 Nuclear Repulsion      ENuc            ....   2603.7063805336 Eh

Convergence Acceleration:
 DIIS                   CNVDIIS         .... on
   Start iteration      DIISMaxIt       ....    12
   Startup error        DIISStart       ....  0.200000
   # of expansion vecs  DIISMaxEq       ....     5
   Bias factor          DIISBfac        ....   1.050
   Max. coefficient     DIISMaxC        ....  10.000
 Trust-Rad. Augm. Hess. CNVTRAH         .... auto
   Auto Start mean grad. ratio tolernc. ....  1.125000
   Auto Start start iteration           ....    20
   Auto Start num. interpolation iter.  ....    10
   Max. Number of Micro iterations      ....    16
   Max. Number of Macro iterations      .... Maxiter - #DIIS iter
   Number of Davidson start vectors     ....     2
   Converg. threshold I  (grad. norm)   ....   1.000e-05
   Converg. threshold II (energy diff.) ....   1.000e-08
   Grad. Scal. Fac. for Micro threshold ....   0.100
   Minimum threshold for Micro iter.    ....   0.010
   NR start threshold (gradient norm)   ....   0.001
   Initial trust radius                 ....   0.400
   Minimum AH scaling param. (alpha)    ....   1.000
   Maximum AH scaling param. (alpha)    .... 1000.000
   Orbital update algorithm             .... Taylor
   White noise on init. David. guess    .... on
   Maximum white noise                  ....   0.010
   Quad. conv. algorithm                .... NR
 SOSCF                  CNVSOSCF        .... on
   Start iteration      SOSCFMaxIt      ....   150
   Startup grad/error   SOSCFStart      ....  0.003300
 Level Shifting         CNVShift        .... on
   Level shift para.    LevelShift      ....    0.2500
   Turn off err/grad.   ShiftErr        ....    0.0010
 Zerner damping         CNVZerner       .... off
 Static damping         CNVDamp         .... off
 Fernandez-Rico         CNVRico         .... off

SCF Procedure:
 Maximum # iterations   MaxIter         ....   125
 SCF integral mode      SCFMode         .... Direct
   Integral package                     .... SHARK and LIBINT hybrid scheme
 Reset frequency        DirectResetFreq ....    20
 Integral Threshold     Thresh          ....  2.500e-11 Eh
 Primitive CutOff       TCut            ....  2.500e-12 Eh

Convergence Tolerance:
 Convergence Check Mode ConvCheckMode   .... Total+1el-Energy
 Convergence forced     ConvForced      .... 1
 Energy Change          TolE            ....  1.000e-08 Eh
 1-El. energy change                    ....  1.000e-05 Eh
 Orbital Gradient       TolG            ....  1.000e-05
 Orbital Rotation angle TolX            ....  1.000e-05
 DIIS Error             TolErr          ....  5.000e-07


Diagonalization of the overlap matrix:
Smallest eigenvalue                        ... 1.853e-04
Time for diagonalization                   ...    2.230 sec
Threshold for overlap eigenvalues          ... 1.000e-08
Number of eigenvalues below threshold      ... 0
Time for construction of square roots      ...    0.373 sec
Total time needed                          ...    2.638 sec

[kennedy150:42811] 7 more processes have sent help message help-mpi-btl-openib.txt / error in device init
[kennedy150:42811] Set MCA parameter "orte_base_help_aggregate" to 0 to see all help / error messages
Time for model grid setup =    3.805 sec

------------------------------
INITIAL GUESS: MODEL POTENTIAL
------------------------------
Loading Hartree-Fock densities                     ... done
Calculating cut-offs                               ... done
Initializing the effective Hamiltonian             ... done
Setting up the integral package (SHARK)            ... done
Starting the Coulomb interaction                   ... done (   2.6 sec)
Reading the grid                                   ... done
Mapping shells                                     ... done
Starting the XC term evaluation                    ... done (   1.8 sec)
Transforming the Hamiltonian                       ... done (   0.0 sec)
Diagonalizing the Hamiltonian                      ... done (   0.1 sec)
Back transforming the eigenvectors                 ... done (   0.0 sec)
Now organizing SCF variables                       ... done
                      ------------------
                      INITIAL GUESS DONE (   8.4 sec)
                      ------------------
--------------
SCF ITERATIONS
--------------
ITER       Energy         Delta-E        Max-DP      RMS-DP      [F,P]
               ***  Starting incremental Fock matrix formation  ***
  0  -1295.6456533099   0.000000000000 0.20713608  0.00562135  0.2491448
  1  -1296.4164703845  -0.770817074582 0.08432410  0.00146980  0.0994662
                               ***Turning on DIIS***
  2  -1296.4712324504  -0.054762065866 0.05109032  0.00060049  0.0527000
  3  -1296.6455451000  -0.174312649659 0.01533769  0.00024157  0.0321285
  4  -1296.5409413298   0.104603770250 0.00730659  0.00013650  0.0054594
                      *** Initiating the SOSCF procedure ***
                           *** Shutting down DIIS ***
                      *** Re-Reading the Fockian *** 
                      *** Removing any level shift *** 
ITER      Energy       Delta-E        Grad      Rot      Max-DP    RMS-DP
  5  -1296.50698285   0.0339584842  0.003227  0.003227  0.003912  0.000070
               *** Restarting incremental Fock matrix formation ***
  6  -1296.49102217   0.0159606729  0.001510  0.004130  0.002035  0.000036
  7  -1296.49110059  -0.0000784180  0.000755  0.005128  0.003317  0.000051
  8  -1296.49113186  -0.0000312704  0.000305  0.000730  0.000430  0.000009
  9  -1296.49113544  -0.0000035784  0.000098  0.000224  0.000182  0.000003
 10  -1296.49113601  -0.0000005682  0.000032  0.000119  0.000102  0.000002
 11  -1296.49113616  -0.0000001538  0.000017  0.000090  0.000052  0.000001
 12  -1296.49113620  -0.0000000420  0.000008  0.000034  0.000018  0.000000
 13  -1296.49113621  -0.0000000029  0.000003  0.000008  0.000020  0.000000
                  ***Gradient check signals convergence***
              ***Rediagonalizing the Fockian in SOSCF/NRSCF***

               *****************************************************
               *                     SUCCESS                       *
               *           SCF CONVERGED AFTER  14 CYCLES          *
               *****************************************************


----------------
TOTAL SCF ENERGY
----------------

Total Energy       :        -1296.49113621 Eh          -35279.31738 eV

Components:
Nuclear Repulsion  :         2603.70638053 Eh           70850.45258 eV
Electronic Energy  :        -3900.19751674 Eh         -106129.76996 eV
One Electron Energy:        -6942.95911251 Eh         -188927.52234 eV
Two Electron Energy:         3042.76159577 Eh           82797.75238 eV

Virial components:
Potential Energy   :        -2592.24927431 Eh          -70538.68887 eV
Kinetic Energy     :         1295.75813810 Eh           35259.37149 eV
Virial Ratio       :            2.00056569


---------------
SCF CONVERGENCE
---------------

  Last Energy change         ...   -3.0423e-10  Tolerance :   1.0000e-08
  Last MAX-Density change    ...    5.4279e-06  Tolerance :   1.0000e-07
  Last RMS-Density change    ...    8.7520e-08  Tolerance :   5.0000e-09
  Last Orbital Gradient      ...    1.5260e-06  Tolerance :   1.0000e-05
  Last Orbital Rotation      ...    2.9679e-06  Tolerance :   1.0000e-05

             **** THE GBW FILE WAS UPDATED (QA_PF.gbw) ****
             **** DENSITY QA_PF.scfp WAS UPDATED ****
             **** ENERGY FILE WAS UPDATED (QA_PF.en.tmp) ****
             **** THE GBW FILE WAS UPDATED (QA_PF.gbw) ****
             **** DENSITY QA_PF.scfp WAS UPDATED ****
----------------
ORBITAL ENERGIES
----------------

  NO   OCC          E(Eh)            E(eV) 
   0   2.0000     -26.311674      -715.9770 
   1   2.0000     -20.545104      -559.0607 
   2   2.0000     -20.545103      -559.0607 
   3   2.0000     -15.650544      -425.8730 
   4   2.0000     -11.346128      -308.7438 
   5   2.0000     -11.346127      -308.7438 
   6   2.0000     -11.333243      -308.3932 
   7   2.0000     -11.330393      -308.3157 
   8   2.0000     -11.325907      -308.1936 
   9   2.0000     -11.325887      -308.1931 
  10   2.0000     -11.274008      -306.7814 
  11   2.0000     -11.273949      -306.7797 
  12   2.0000     -11.272129      -306.7302 
  13   2.0000     -11.272127      -306.7302 
  14   2.0000     -11.264670      -306.5272 
  15   2.0000     -11.264669      -306.5272 
  16   2.0000     -11.263539      -306.4965 
  17   2.0000     -11.261862      -306.4509 
  18   2.0000     -11.261857      -306.4507 
  19   2.0000     -11.260629      -306.4173 
  20   2.0000     -11.260610      -306.4168 
  21   2.0000     -11.260114      -306.4033 
  22   2.0000     -11.260114      -306.4033 
  23   2.0000     -11.259489      -306.3863 
  24   2.0000     -11.257942      -306.3442 
  25   2.0000     -11.257513      -306.3325 
  26   2.0000     -11.254702      -306.2560 
  27   2.0000     -11.254701      -306.2560 
  28   2.0000     -11.251587      -306.1712 
  29   2.0000     -11.251568      -306.1707 
  30   2.0000      -1.631706       -44.4010 
  31   2.0000      -1.387425       -37.7538 
  32   2.0000      -1.385831       -37.7104 
  33   2.0000      -1.345882       -36.6233 
  34   2.0000      -1.197683       -32.5906 
  35   2.0000      -1.190325       -32.3904 
  36   2.0000      -1.174112       -31.9492 
  37   2.0000      -1.159792       -31.5595 
  38   2.0000      -1.095770       -29.8174 
  39   2.0000      -1.090371       -29.6705 
  40   2.0000      -1.055845       -28.7310 
  41   2.0000      -1.049238       -28.5512 
  42   2.0000      -1.044848       -28.4318 
  43   2.0000      -1.037620       -28.2351 
  44   2.0000      -1.030040       -28.0288 
  45   2.0000      -1.001231       -27.2449 
  46   2.0000      -0.925641       -25.1880 
  47   2.0000      -0.903649       -24.5895 
  48   2.0000      -0.892707       -24.2918 
  49   2.0000      -0.888205       -24.1693 
  50   2.0000      -0.863888       -23.5076 
  51   2.0000      -0.844379       -22.9767 
  52   2.0000      -0.835429       -22.7332 
  53   2.0000      -0.826747       -22.4969 
  54   2.0000      -0.781068       -21.2539 
  55   2.0000      -0.766970       -20.8703 
  56   2.0000      -0.758147       -20.6302 
  57   2.0000      -0.753244       -20.4968 
  58   2.0000      -0.747093       -20.3294 
  59   2.0000      -0.707487       -19.2517 
  60   2.0000      -0.702077       -19.1045 
  61   2.0000      -0.692413       -18.8415 
  62   2.0000      -0.684964       -18.6388 
  63   2.0000      -0.679008       -18.4767 
  64   2.0000      -0.673941       -18.3389 
  65   2.0000      -0.667332       -18.1590 
  66   2.0000      -0.659427       -17.9439 
  67   2.0000      -0.641810       -17.4645 
  68   2.0000      -0.636285       -17.3142 
  69   2.0000      -0.631694       -17.1893 
  70   2.0000      -0.627603       -17.0780 
  71   2.0000      -0.624634       -16.9971 
  72   2.0000      -0.618761       -16.8373 
  73   2.0000      -0.612348       -16.6628 
  74   2.0000      -0.607486       -16.5305 
  75   2.0000      -0.597994       -16.2723 
  76   2.0000      -0.593074       -16.1384 
  77   2.0000      -0.590767       -16.0756 
  78   2.0000      -0.568898       -15.4805 
  79   2.0000      -0.556583       -15.1454 
  80   2.0000      -0.548794       -14.9334 
  81   2.0000      -0.541627       -14.7384 
  82   2.0000      -0.535295       -14.5661 
  83   2.0000      -0.530850       -14.4452 
  84   2.0000      -0.528872       -14.3913 
  85   2.0000      -0.523168       -14.2361 
  86   2.0000      -0.517561       -14.0836 
  87   2.0000      -0.512128       -13.9357 
  88   2.0000      -0.507199       -13.8016 
  89   2.0000      -0.501988       -13.6598 
  90   2.0000      -0.470558       -12.8045 
  91   2.0000      -0.432202       -11.7608 
  92   2.0000      -0.422134       -11.4868 
  93   2.0000      -0.382694       -10.4136 
  94   2.0000      -0.374792       -10.1986 
  95   2.0000      -0.365526        -9.9465 
  96   2.0000      -0.358144        -9.7456 
  97   2.0000      -0.356330        -9.6962 
  98   2.0000      -0.355561        -9.6753 
  99   2.0000      -0.325599        -8.8600 
 100   2.0000      -0.289588        -7.8801 
 101   0.0000       0.033336         0.9071 
 102   0.0000       0.077068         2.0971 
 103   0.0000       0.084543         2.3005 
 104   0.0000       0.094716         2.5774 
 105   0.0000       0.113814         3.0970 
 106   0.0000       0.120112         3.2684 
 107   0.0000       0.139003         3.7825 
 108   0.0000       0.156415         4.2563 
 109   0.0000       0.172246         4.6870 
 110   0.0000       0.183921         5.0047 
 111   0.0000       0.188022         5.1164 
 112   0.0000       0.207844         5.6557 
 113   0.0000       0.211235         5.7480 
 114   0.0000       0.216315         5.8862 
 115   0.0000       0.223694         6.0870 
 116   0.0000       0.227016         6.1774 
 117   0.0000       0.244224         6.6457 
 118   0.0000       0.245916         6.6917 
 119   0.0000       0.251736         6.8501 
 120   0.0000       0.252005         6.8574 
 121   0.0000       0.260713         7.0944 
 122   0.0000       0.262411         7.1406 
 123   0.0000       0.280253         7.6261 
 124   0.0000       0.296547         8.0694 
 125   0.0000       0.324371         8.8266 
 126   0.0000       0.341081         9.2813 
 127   0.0000       0.342136         9.3100 
 128   0.0000       0.343992         9.3605 
 129   0.0000       0.357236         9.7209 
 130   0.0000       0.376805        10.2534 
 131   0.0000       0.380470        10.3531 
 132   0.0000       0.386024        10.5043 
 133   0.0000       0.395891        10.7727 
 134   0.0000       0.399808        10.8793 
 135   0.0000       0.413280        11.2459 
 136   0.0000       0.418033        11.3753 
 137   0.0000       0.435888        11.8611 
 138   0.0000       0.438122        11.9219 
 139   0.0000       0.445997        12.1362 
 140   0.0000       0.448899        12.2152 
 141   0.0000       0.457942        12.4612 
 142   0.0000       0.465704        12.6724 
 143   0.0000       0.470809        12.8114 
 144   0.0000       0.471039        12.8176 
 145   0.0000       0.475672        12.9437 
 146   0.0000       0.492981        13.4147 
 147   0.0000       0.496705        13.5160 
 148   0.0000       0.516433        14.0529 
 149   0.0000       0.530405        14.4330 
 150   0.0000       0.547196        14.8900 
 151   0.0000       0.551401        15.0044 
 152   0.0000       0.571041        15.5388 
 153   0.0000       0.579789        15.7769 
 154   0.0000       0.588904        16.0249 
 155   0.0000       0.598261        16.2795 
 156   0.0000       0.600481        16.3399 
 157   0.0000       0.616651        16.7799 
 158   0.0000       0.626889        17.0585 
 159   0.0000       0.631163        17.1748 
 160   0.0000       0.638950        17.3867 
 161   0.0000       0.647611        17.6224 
 162   0.0000       0.652831        17.7644 
 163   0.0000       0.653207        17.7747 
 164   0.0000       0.654828        17.8188 
 165   0.0000       0.668196        18.1825 
 166   0.0000       0.668704        18.1964 
 167   0.0000       0.676542        18.4096 
 168   0.0000       0.678202        18.4548 
 169   0.0000       0.680837        18.5265 
 170   0.0000       0.682443        18.5702 
 171   0.0000       0.684901        18.6371 
 172   0.0000       0.685947        18.6656 
 173   0.0000       0.688994        18.7485 
 174   0.0000       0.693915        18.8824 
 175   0.0000       0.698590        19.0096 
 176   0.0000       0.702557        19.1176 
 177   0.0000       0.705700        19.2031 
 178   0.0000       0.709851        19.3160 
 179   0.0000       0.711069        19.3492 
 180   0.0000       0.720168        19.5968 
 181   0.0000       0.720192        19.5974 
 182   0.0000       0.724448        19.7132 
 183   0.0000       0.730836        19.8871 
 184   0.0000       0.732516        19.9328 
 185   0.0000       0.739786        20.1306 
 186   0.0000       0.741167        20.1682 
 187   0.0000       0.742896        20.2152 
 188   0.0000       0.752223        20.4690 
 189   0.0000       0.755438        20.5565 
 190   0.0000       0.760577        20.6964 
 191   0.0000       0.764879        20.8134 
 192   0.0000       0.777070        21.1451 
 193   0.0000       0.777072        21.1452 
 194   0.0000       0.789139        21.4736 
 195   0.0000       0.796256        21.6672 
 196   0.0000       0.805579        21.9209 
 197   0.0000       0.815698        22.1963 
 198   0.0000       0.817582        22.2475 
 199   0.0000       0.819833        22.3088 
 200   0.0000       0.823728        22.4148 
 201   0.0000       0.833609        22.6837 
 202   0.0000       0.837838        22.7987 
 203   0.0000       0.844405        22.9774 
 204   0.0000       0.848427        23.0869 
 205   0.0000       0.855385        23.2762 
 206   0.0000       0.863059        23.4850 
 207   0.0000       0.866333        23.5741 
 208   0.0000       0.866415        23.5763 
 209   0.0000       0.873390        23.7661 
 210   0.0000       0.876301        23.8454 
 211   0.0000       0.878312        23.9001 
 212   0.0000       0.879742        23.9390 
 213   0.0000       0.890276        24.2256 
 214   0.0000       0.893909        24.3245 
 215   0.0000       0.898473        24.4487 
 216   0.0000       0.899751        24.4835 
 217   0.0000       0.909688        24.7539 
 218   0.0000       0.914556        24.8863 
 219   0.0000       0.917741        24.9730 
 220   0.0000       0.925159        25.1748 
 221   0.0000       0.939881        25.5755 
 222   0.0000       0.942971        25.6595 
 223   0.0000       0.952513        25.9192 
 224   0.0000       0.953641        25.9499 
 225   0.0000       0.962876        26.2012 
 226   0.0000       0.963160        26.2089 
 227   0.0000       0.984101        26.7788 
 228   0.0000       0.994818        27.0704 
 229   0.0000       0.994942        27.0737 
 230   0.0000       1.002780        27.2870 
 231   0.0000       1.016664        27.6648 
 232   0.0000       1.024979        27.8911 
 233   0.0000       1.029993        28.0275 
 234   0.0000       1.049627        28.5618 
 235   0.0000       1.070263        29.1233 
 236   0.0000       1.073067        29.1996 
 237   0.0000       1.085493        29.5378 
 238   0.0000       1.089509        29.6471 
 239   0.0000       1.091529        29.7020 
 240   0.0000       1.099316        29.9139 
 241   0.0000       1.099468        29.9180 
 242   0.0000       1.105107        30.0715 
 243   0.0000       1.120193        30.4820 
 244   0.0000       1.129778        30.7428 
 245   0.0000       1.131253        30.7830 
 246   0.0000       1.131575        30.7917 
 247   0.0000       1.140532        31.0355 
 248   0.0000       1.146264        31.1914 
 249   0.0000       1.151343        31.3296 
 250   0.0000       1.157474        31.4965 
 251   0.0000       1.163188        31.6519 
 252   0.0000       1.168429        31.7946 
 253   0.0000       1.172047        31.8930 
 254   0.0000       1.180622        32.1264 
 255   0.0000       1.189957        32.3804 
 256   0.0000       1.191909        32.4335 
 257   0.0000       1.196817        32.5671 
 258   0.0000       1.215067        33.0637 
 259   0.0000       1.215274        33.0693 
 260   0.0000       1.219497        33.1842 
 261   0.0000       1.229869        33.4664 
 262   0.0000       1.237978        33.6871 
 263   0.0000       1.238242        33.6943 
 264   0.0000       1.243486        33.8370 
 265   0.0000       1.247322        33.9414 
 266   0.0000       1.251627        34.0585 
 267   0.0000       1.257759        34.2254 
 268   0.0000       1.259761        34.2798 
 269   0.0000       1.264436        34.4070 
 270   0.0000       1.272213        34.6187 
 271   0.0000       1.276640        34.7391 
 272   0.0000       1.283356        34.9219 
 273   0.0000       1.296091        35.2684 
 274   0.0000       1.298125        35.3238 
 275   0.0000       1.304682        35.5022 
 276   0.0000       1.305906        35.5355 
 277   0.0000       1.310384        35.6574 
 278   0.0000       1.321452        35.9585 
 279   0.0000       1.324505        36.0416 
 280   0.0000       1.334065        36.3018 
 281   0.0000       1.347269        36.6610 
 282   0.0000       1.355040        36.8725 
 283   0.0000       1.357072        36.9278 
 284   0.0000       1.362164        37.0664 
 285   0.0000       1.385080        37.6899 
 286   0.0000       1.387968        37.7685 
 287   0.0000       1.391362        37.8609 
 288   0.0000       1.416132        38.5349 
 289   0.0000       1.416513        38.5453 
 290   0.0000       1.430044        38.9135 
 291   0.0000       1.430918        38.9373 
 292   0.0000       1.447631        39.3920 
 293   0.0000       1.447880        39.3988 
 294   0.0000       1.481239        40.3066 
 295   0.0000       1.498646        40.7802 
 296   0.0000       1.516823        41.2749 
 297   0.0000       1.525714        41.5168 
 298   0.0000       1.533280        41.7227 
 299   0.0000       1.541477        41.9457 
 300   0.0000       1.549615        42.1672 
 301   0.0000       1.566416        42.6244 
 302   0.0000       1.582272        43.0558 
 303   0.0000       1.583326        43.0845 
 304   0.0000       1.600283        43.5459 
 305   0.0000       1.602841        43.6155 
 306   0.0000       1.605790        43.6958 
 307   0.0000       1.609856        43.8064 
 308   0.0000       1.632263        44.4161 
 309   0.0000       1.642802        44.7029 
 310   0.0000       1.657911        45.1140 
 311   0.0000       1.670208        45.4487 
 312   0.0000       1.673050        45.5260 
 313   0.0000       1.683339        45.8060 
 314   0.0000       1.686834        45.9011 
 315   0.0000       1.705695        46.4143 
 316   0.0000       1.706652        46.4404 
 317   0.0000       1.711069        46.5605 
 318   0.0000       1.718933        46.7745 
 319   0.0000       1.722879        46.8819 
 320   0.0000       1.735652        47.2295 
 321   0.0000       1.747342        47.5476 
 322   0.0000       1.748320        47.5742 
 323   0.0000       1.755500        47.7696 
 324   0.0000       1.759389        47.8754 
 325   0.0000       1.763098        47.9763 
 326   0.0000       1.778322        48.3906 
 327   0.0000       1.784279        48.5527 
 328   0.0000       1.787960        48.6529 
 329   0.0000       1.788770        48.6749 
 330   0.0000       1.795722        48.8641 
 331   0.0000       1.821301        49.5601 
 332   0.0000       1.831430        49.8357 
 333   0.0000       1.832886        49.8754 
 334   0.0000       1.844051        50.1792 
 335   0.0000       1.849974        50.3404 
 336   0.0000       1.855914        50.5020 
 337   0.0000       1.862363        50.6775 
 338   0.0000       1.863964        50.7210 
 339   0.0000       1.864091        50.7245 
 340   0.0000       1.866675        50.7948 
 341   0.0000       1.882054        51.2133 
 342   0.0000       1.885661        51.3114 
 343   0.0000       1.893211        51.5169 
 344   0.0000       1.898534        51.6617 
 345   0.0000       1.903559        51.7985 
 346   0.0000       1.910464        51.9864 
 347   0.0000       1.915829        52.1323 
 348   0.0000       1.916130        52.1406 
 349   0.0000       1.919596        52.2349 
 350   0.0000       1.925727        52.4017 
 351   0.0000       1.931684        52.5638 
 352   0.0000       1.937297        52.7165 
 353   0.0000       1.938860        52.7591 
 354   0.0000       1.953068        53.1457 
 355   0.0000       1.955131        53.2018 
 356   0.0000       1.961927        53.3867 
 357   0.0000       1.975030        53.7433 
 358   0.0000       1.979597        53.8676 
 359   0.0000       1.984605        54.0038 
 360   0.0000       1.995662        54.3047 
 361   0.0000       2.005891        54.5831 
 362   0.0000       2.009260        54.6747 
 363   0.0000       2.015794        54.8526 
 364   0.0000       2.029115        55.2150 
 365   0.0000       2.029151        55.2160 
 366   0.0000       2.036497        55.4159 
 367   0.0000       2.038712        55.4762 
 368   0.0000       2.040923        55.5363 
 369   0.0000       2.048164        55.7334 
 370   0.0000       2.056321        55.9553 
 371   0.0000       2.060785        56.0768 
 372   0.0000       2.066873        56.2425 
 373   0.0000       2.077099        56.5207 
 374   0.0000       2.087430        56.8018 
 375   0.0000       2.089253        56.8515 
 376   0.0000       2.093659        56.9714 
 377   0.0000       2.111602        57.4596 
 378   0.0000       2.114484        57.5380 
 379   0.0000       2.119302        57.6691 
 380   0.0000       2.127693        57.8975 
 381   0.0000       2.128007        57.9060 
 382   0.0000       2.130692        57.9791 
 383   0.0000       2.137597        58.1670 
 384   0.0000       2.138527        58.1923 
 385   0.0000       2.145851        58.3916 
 386   0.0000       2.150723        58.5241 
 387   0.0000       2.153543        58.6009 
 388   0.0000       2.165623        58.9296 
 389   0.0000       2.168779        59.0155 
 390   0.0000       2.176284        59.2197 
 391   0.0000       2.192671        59.6656 
 392   0.0000       2.195064        59.7307 
 393   0.0000       2.203793        59.9682 
 394   0.0000       2.226778        60.5937 
 395   0.0000       2.235120        60.8207 
 396   0.0000       2.237013        60.8722 
 397   0.0000       2.244045        61.0636 
 398   0.0000       2.254878        61.3584 
 399   0.0000       2.258484        61.4565 
 400   0.0000       2.261640        61.5423 
 401   0.0000       2.271025        61.7977 
 402   0.0000       2.273479        61.8645 
 403   0.0000       2.274344        61.8880 
 404   0.0000       2.294755        62.4435 
 405   0.0000       2.312256        62.9197 
 406   0.0000       2.329288        63.3832 
 407   0.0000       2.338428        63.6319 
 408   0.0000       2.351940        63.9995 
 409   0.0000       2.357247        64.1440 
 410   0.0000       2.372779        64.5666 
 411   0.0000       2.384416        64.8833 
 412   0.0000       2.389025        65.0087 
 413   0.0000       2.403174        65.3937 
 414   0.0000       2.403549        65.4039 
 415   0.0000       2.412415        65.6451 
 416   0.0000       2.428715        66.0887 
 417   0.0000       2.439787        66.3900 
 418   0.0000       2.455264        66.8111 
 419   0.0000       2.470982        67.2389 
 420   0.0000       2.471027        67.2401 
 421   0.0000       2.486909        67.6722 
 422   0.0000       2.501231        68.0620 
 423   0.0000       2.508199        68.2516 
 424   0.0000       2.513020        68.3828 
 425   0.0000       2.534374        68.9638 
 426   0.0000       2.541231        69.1504 
 427   0.0000       2.574616        70.0589 
 428   0.0000       2.594186        70.5914 
 429   0.0000       2.600469        70.7624 
 430   0.0000       2.606018        70.9133 
 431   0.0000       2.613721        71.1230 
 432   0.0000       2.649128        72.0864 
 433   0.0000       2.701997        73.5251 
 434   0.0000       2.724416        74.1351 
 435   0.0000       2.725673        74.1693 
 436   0.0000       2.731920        74.3393 
 437   0.0000       2.733234        74.3751 
 438   0.0000       2.733379        74.3790 
 439   0.0000       2.747924        74.7748 
 440   0.0000       2.773245        75.4638 
 441   0.0000       2.781786        75.6963 
 442   0.0000       2.793217        76.0073 
 443   0.0000       2.796507        76.0968 
 444   0.0000       2.799392        76.1753 
 445   0.0000       2.836168        77.1760 
 446   0.0000       2.836743        77.1917 
 447   0.0000       2.852579        77.6226 
 448   0.0000       2.875953        78.2587 
 449   0.0000       2.887820        78.5816 
 450   0.0000       2.927089        79.6501 
 451   0.0000       2.932256        79.7908 
 452   0.0000       2.964142        80.6584 
 453   0.0000       2.984895        81.2231 
 454   0.0000       2.996364        81.5352 
 455   0.0000       3.010333        81.9153 
 456   0.0000       3.015816        82.0645 
 457   0.0000       3.046191        82.8911 
 458   0.0000       3.054725        83.1233 
 459   0.0000       3.080149        83.8151 
 460   0.0000       3.080624        83.8280 
 461   0.0000       3.088900        84.0532 
 462   0.0000       3.106326        84.5274 
 463   0.0000       3.111818        84.6769 
 464   0.0000       3.113813        84.7312 
 465   0.0000       3.124637        85.0257 
 466   0.0000       3.146089        85.6094 
 467   0.0000       3.183897        86.6382 
 468   0.0000       3.190215        86.8102 
 469   0.0000       3.220885        87.6447 
 470   0.0000       3.228722        87.8580 
 471   0.0000       3.316016        90.2334 
 472   0.0000       3.349627        91.1480 
 473   0.0000       3.476905        94.6114 
 474   0.0000       3.479996        94.6955 
 475   0.0000       3.516250        95.6820 
 476   0.0000       3.624418        98.6254 
 477   0.0000       3.687247       100.3351 
 478   0.0000       3.780850       102.8821 
 479   0.0000       3.797936       103.3471 
 480   0.0000       3.854976       104.8992 
 481   0.0000       3.914450       106.5176 
 482   0.0000       3.920315       106.6772 
 483   0.0000       3.991123       108.6040 
 484   0.0000       3.991639       108.6180 
 485   0.0000       3.993094       108.6576 
 486   0.0000       4.039720       109.9264 
 487   0.0000       4.211884       114.6112 
 488   0.0000       4.448210       121.0420 
 489   0.0000       4.674305       127.1943 

                    ********************************
                    * MULLIKEN POPULATION ANALYSIS *
                    ********************************

-----------------------
MULLIKEN ATOMIC CHARGES
-----------------------
   0 C :    0.030081
   1 C :   -0.012442
   2 C :    0.082161
   3 C :   -0.257612
   4 C :    0.239869
   5 C :   -0.055980
   6 N :   -0.729654
   7 C :    0.239863
   8 C :    0.344081
   9 C :   -0.257958
  10 C :    0.125909
  11 C :   -0.053616
  12 C :    0.125911
  13 C :   -0.257957
  14 C :    0.030075
  15 C :   -0.055974
  16 C :   -0.257612
  17 C :    0.082162
  18 C :   -0.012438
  19 C :    0.459034
  20 C :    0.459035
  21 O :   -0.372194
  22 O :   -0.372194
  23 C :   -0.059355
  24 C :    0.000108
  25 C :   -0.032089
  26 C :    0.255714
  27 C :   -0.032089
  28 C :    0.000113
  29 F :   -0.278607
  30 H :    0.038189
  31 H :    0.033922
  32 H :    0.050564
  33 H :    0.058457
  34 H :    0.048547
  35 H :    0.048546
  36 H :    0.038193
  37 H :    0.058458
  38 H :    0.050560
  39 H :    0.033920
  40 H :    0.035523
  41 H :    0.046627
  42 H :    0.046627
  43 H :    0.035520
Sum of atomic charges:   -0.0000000

--------------------------------
MULLIKEN REDUCED ORBITAL CHARGES
--------------------------------
  0 C s       :     3.092617  s :     3.092617
      pz      :     0.919163  p :     2.793269
      px      :     0.928278
      py      :     0.945829
      dz2     :     0.005868  d :     0.084032
      dxz     :     0.007775
      dyz     :     0.018442
      dx2y2   :     0.028925
      dxy     :     0.023022
  1 C s       :     3.084524  s :     3.084524
      pz      :     1.001045  p :     2.848171
      px      :     0.934312
      py      :     0.912814
      dz2     :     0.006933  d :     0.079747
      dxz     :     0.011242
      dyz     :     0.010146
      dx2y2   :     0.023740
      dxy     :     0.027686
  2 C s       :     3.103056  s :     3.103056
      pz      :     0.884708  p :     2.731585
      px      :     0.872693
      py      :     0.974183
      dz2     :     0.007259  d :     0.083197
      dxz     :     0.013077
      dyz     :     0.011319
      dx2y2   :     0.022985
      dxy     :     0.028557
  3 C s       :     3.137445  s :     3.137445
      pz      :     1.059447  p :     3.029181
      px      :     0.927835
      py      :     1.041900
      dz2     :     0.006762  d :     0.090986
      dxz     :     0.008824
      dyz     :     0.016034
      dx2y2   :     0.032940
      dxy     :     0.026426
  4 C s       :     3.066199  s :     3.066199
      pz      :     0.882415  p :     2.560023
      px      :     0.897131
      py      :     0.780477
      dz2     :     0.013122  d :     0.133909
      dxz     :     0.017958
      dyz     :     0.028735
      dx2y2   :     0.033795
      dxy     :     0.040299
  5 C s       :     3.074674  s :     3.074674
      pz      :     0.997473  p :     2.903733
      px      :     0.951982
      py      :     0.954278
      dz2     :     0.007081  d :     0.077573
      dxz     :     0.011597
      dyz     :     0.011664
      dx2y2   :     0.024767
      dxy     :     0.022463
  6 N s       :     3.559611  s :     3.559611
      pz      :     1.659775  p :     4.122379
      px      :     1.221374
      py      :     1.241230
      dz2     :     0.003806  d :     0.047663
      dxz     :     0.006755
      dyz     :     0.006435
      dx2y2   :     0.015883
      dxy     :     0.014784
  7 C s       :     3.066200  s :     3.066200
      pz      :     0.882416  p :     2.560028
      px      :     0.897133
      py      :     0.780479
      dz2     :     0.013122  d :     0.133909
      dxz     :     0.017958
      dyz     :     0.028735
      dx2y2   :     0.033794
      dxy     :     0.040299
  8 C s       :     3.093681  s :     3.093681
      pz      :     0.858665  p :     2.424789
      px      :     0.703567
      py      :     0.862557
      dz2     :     0.008641  d :     0.137449
      dxz     :     0.030079
      dyz     :     0.018412
      dx2y2   :     0.046373
      dxy     :     0.033945
  9 C s       :     3.113585  s :     3.113585
      pz      :     1.101853  p :     3.053817
      px      :     1.037917
      py      :     0.914047
      dz2     :     0.006315  d :     0.090556
      dxz     :     0.013133
      dyz     :     0.009628
      dx2y2   :     0.026770
      dxy     :     0.034710
 10 C s       :     3.126862  s :     3.126862
      pz      :     0.847139  p :     2.663216
      px      :     0.924043
      py      :     0.892034
      dz2     :     0.004846  d :     0.084013
      dxz     :     0.015890
      dyz     :     0.009077
      dx2y2   :     0.026733
      dxy     :     0.027467
 11 C s       :     3.094749  s :     3.094749
      pz      :     1.033753  p :     2.857345
      px      :     0.863519
      py      :     0.960073
      dz2     :     0.006499  d :     0.101521
      dxz     :     0.014638
      dyz     :     0.011850
      dx2y2   :     0.034592
      dxy     :     0.033942
 12 C s       :     3.126858  s :     3.126858
      pz      :     0.847142  p :     2.663217
      px      :     0.924043
      py      :     0.892032
      dz2     :     0.004846  d :     0.084014
      dxz     :     0.015890
      dyz     :     0.009077
      dx2y2   :     0.026733
      dxy     :     0.027467
 13 C s       :     3.113584  s :     3.113584
      pz      :     1.101853  p :     3.053817
      px      :     1.037918
      py      :     0.914046
      dz2     :     0.006315  d :     0.090557
      dxz     :     0.013133
      dyz     :     0.009628
      dx2y2   :     0.026770
      dxy     :     0.034710
 14 C s       :     3.092616  s :     3.092616
      pz      :     0.919166  p :     2.793275
      px      :     0.928280
      py      :     0.945830
      dz2     :     0.005868  d :     0.084033
      dxz     :     0.007775
      dyz     :     0.018443
      dx2y2   :     0.028926
      dxy     :     0.023022
 15 C s       :     3.074671  s :     3.074671
      pz      :     0.997471  p :     2.903728
      px      :     0.951981
      py      :     0.954276
      dz2     :     0.007081  d :     0.077574
      dxz     :     0.011597
      dyz     :     0.011665
      dx2y2   :     0.024768
      dxy     :     0.022463
 16 C s       :     3.137443  s :     3.137443
      pz      :     1.059445  p :     3.029183
      px      :     0.927837
      py      :     1.041902
      dz2     :     0.006762  d :     0.090986
      dxz     :     0.008825
      dyz     :     0.016034
      dx2y2   :     0.032940
      dxy     :     0.026426
 17 C s       :     3.103055  s :     3.103055
      pz      :     0.884710  p :     2.731586
      px      :     0.872695
      py      :     0.974181
      dz2     :     0.007259  d :     0.083197
      dxz     :     0.013077
      dyz     :     0.011319
      dx2y2   :     0.022985
      dxy     :     0.028557
 18 C s       :     3.084521  s :     3.084521
      pz      :     1.001044  p :     2.848169
      px      :     0.934313
      py      :     0.912812
      dz2     :     0.006934  d :     0.079748
      dxz     :     0.011242
      dyz     :     0.010146
      dx2y2   :     0.023740
      dxy     :     0.027685
 19 C s       :     3.036551  s :     3.036551
      pz      :     0.695901  p :     2.298958
      px      :     0.800280
      py      :     0.802777
      dz2     :     0.017005  d :     0.205457
      dxz     :     0.024160
      dyz     :     0.035852
      dx2y2   :     0.075085
      dxy     :     0.053356
 20 C s       :     3.036551  s :     3.036551
      pz      :     0.695902  p :     2.298957
      px      :     0.800277
      py      :     0.802777
      dz2     :     0.017005  d :     0.205458
      dxz     :     0.024160
      dyz     :     0.035853
      dx2y2   :     0.075084
      dxy     :     0.053356
 21 O s       :     3.768896  s :     3.768896
      pz      :     1.405081  p :     4.583090
      px      :     1.709864
      py      :     1.468145
      dz2     :     0.002682  d :     0.020208
      dxz     :     0.001780
      dyz     :     0.005162
      dx2y2   :     0.004456
      dxy     :     0.006129
 22 O s       :     3.768896  s :     3.768896
      pz      :     1.405081  p :     4.583090
      px      :     1.709863
      py      :     1.468145
      dz2     :     0.002682  d :     0.020208
      dxz     :     0.001780
      dyz     :     0.005162
      dx2y2   :     0.004456
      dxy     :     0.006129
 23 C s       :     3.107583  s :     3.107583
      pz      :     0.982552  p :     2.849636
      px      :     0.852975
      py      :     1.014109
      dz2     :     0.018107  d :     0.102136
      dxz     :     0.024470
      dyz     :     0.012763
      dx2y2   :     0.025492
      dxy     :     0.021305
 24 C s       :     3.117345  s :     3.117345
      pz      :     0.938228  p :     2.800951
      px      :     0.910591
      py      :     0.952132
      dz2     :     0.011639  d :     0.081596
      dxz     :     0.021948
      dyz     :     0.008719
      dx2y2   :     0.017556
      dxy     :     0.021734
 25 C s       :     3.074851  s :     3.074851
      pz      :     0.969858  p :     2.879198
      px      :     0.941251
      py      :     0.968088
      dz2     :     0.011454  d :     0.078040
      dxz     :     0.021892
      dyz     :     0.007539
      dx2y2   :     0.015424
      dxy     :     0.021731
 26 C s       :     3.090997  s :     3.090997
      pz      :     0.953085  p :     2.481632
      px      :     0.571644
      py      :     0.956903
      dz2     :     0.027883  d :     0.171657
      dxz     :     0.040841
      dyz     :     0.013995
      dx2y2   :     0.048221
      dxy     :     0.040716
 27 C s       :     3.074851  s :     3.074851
      pz      :     0.969859  p :     2.879198
      px      :     0.941252
      py      :     0.968088
      dz2     :     0.011454  d :     0.078040
      dxz     :     0.021893
      dyz     :     0.007539
      dx2y2   :     0.015424
      dxy     :     0.021731
 28 C s       :     3.117342  s :     3.117342
      pz      :     0.938227  p :     2.800949
      px      :     0.910589
      py      :     0.952132
      dz2     :     0.011639  d :     0.081596
      dxz     :     0.021948
      dyz     :     0.008719
      dx2y2   :     0.017556
      dxy     :     0.021734
 29 F s       :     3.909154  s :     3.909154
      pz      :     1.932946  p :     5.362816
      px      :     1.496794
      py      :     1.933076
      dz2     :     0.001029  d :     0.006637
      dxz     :     0.001265
      dyz     :     0.000008
      dx2y2   :     0.003072
      dxy     :     0.001264
 30 H s       :     0.930140  s :     0.930140
      pz      :     0.007926  p :     0.031671
      px      :     0.019922
      py      :     0.003822
 31 H s       :     0.933919  s :     0.933919
      pz      :     0.005938  p :     0.032160
      px      :     0.008266
      py      :     0.017955
 32 H s       :     0.916663  s :     0.916663
      pz      :     0.005692  p :     0.032773
      px      :     0.009627
      py      :     0.017454
 33 H s       :     0.908680  s :     0.908680
      pz      :     0.007158  p :     0.032862
      px      :     0.008161
      py      :     0.017543
 34 H s       :     0.918596  s :     0.918596
      pz      :     0.005072  p :     0.032857
      px      :     0.007856
      py      :     0.019929
 35 H s       :     0.918597  s :     0.918597
      pz      :     0.005072  p :     0.032857
      px      :     0.007856
      py      :     0.019929
 36 H s       :     0.930136  s :     0.930136
      pz      :     0.007926  p :     0.031670
      px      :     0.019922
      py      :     0.003822
 37 H s       :     0.908680  s :     0.908680
      pz      :     0.007157  p :     0.032862
      px      :     0.008161
      py      :     0.017544
 38 H s       :     0.916667  s :     0.916667
      pz      :     0.005692  p :     0.032773
      px      :     0.009627
      py      :     0.017454
 39 H s       :     0.933920  s :     0.933920
      pz      :     0.005939  p :     0.032160
      px      :     0.008266
      py      :     0.017955
 40 H s       :     0.932541  s :     0.932541
      pz      :     0.012358  p :     0.031936
      px      :     0.008195
      py      :     0.011384
 41 H s       :     0.920627  s :     0.920627
      pz      :     0.011980  p :     0.032747
      px      :     0.009049
      py      :     0.011718
 42 H s       :     0.920627  s :     0.920627
      pz      :     0.011980  p :     0.032747
      px      :     0.009049
      py      :     0.011718
 43 H s       :     0.932543  s :     0.932543
      pz      :     0.012358  p :     0.031937
      px      :     0.008195
      py      :     0.011384


                     *******************************
                     * LOEWDIN POPULATION ANALYSIS *
                     *******************************

----------------------
LOEWDIN ATOMIC CHARGES
----------------------
   0 C :    0.010621
   1 C :   -0.043086
   2 C :    0.039543
   3 C :   -0.088196
   4 C :    0.021484
   5 C :   -0.049656
   6 N :    0.121185
   7 C :    0.021485
   8 C :    0.042125
   9 C :   -0.097649
  10 C :    0.071683
  11 C :   -0.050564
  12 C :    0.071680
  13 C :   -0.097649
  14 C :    0.010615
  15 C :   -0.049657
  16 C :   -0.088195
  17 C :    0.039544
  18 C :   -0.043085
[...]

                   <<<<< W A R N I N G >>>>>
 PNOSigmaOpt 0 is only possible for coupled pair type LPNO methods!
 --->>> changing to PNOSigmaOpt 2


--------------------
RI-METRIC GENERATION
--------------------

Time for V**-1/2 generation:     3.111 sec

-----------------
RI-TRANSFORMATION (AUX index driven)
-----------------

Dimension of the orbital-basis         ... 490
Dimension of the aux-basis             ... 1876
Transformation of internal MOs         ...   30- 100
Transformation of internal/external MOs...   30- 100 to  101- 489
Number Format for Storage              ... Double (8 Byte)
Integral mode                          ... Direct

First Phase: integral generation and transformation of MO indices
  Aux angular momentum 0               ... done (    2.981 sec)
  Aux angular momentum 1               ... done (    2.258 sec)
  Aux angular momentum 2               ... done (    1.378 sec)
  Aux angular momentum 3               ... done (    0.641 sec)
Closing buffer VIJ ( 0.04 GB; CompressionRatio= 1.00)
Closing buffer VIA ( 0.39 GB; CompressionRatio= 1.00)
  Phase 1 completed in    10.154 sec
Second Phase: sorting and transformation of aux index

IJ-Transformation
Memory available                       ... 5000 MB 
Max. # MO pairs treated in a batch     ... 9    
# of internal orbitals                 ... 71
# batches for internal orbitals        ... 1
Closing buffer IJV ( 0.04 GB; CompressionRatio= 1.00)
(ij|v) transformation done in     8.559 sec

IA-Transformation
Memory available                       ... 5000 MB 
Max. # MO pairs treated in a batch     ... 9    
# of internal orbitals                 ... 71
# batches for internal orbitals        ... 1
Closing buffer IAV ( 0.39 GB; CompressionRatio= 1.00)
(ia|v) transformation done in    86.984 sec

  Phase 2 completed in   100.926 sec
RI-Integral transformation completed in   111.496 sec

-----------------------
RI-FORMATION OF (ik|jl)
-----------------------

Max core memory to be used            ... 5000 MB
Memory needed per MO                  ...   1.0 MB
# of MOs treated in a batch           ... 9
# of batches needed                   ... 1
Data format used                      ... DOUBLE
 done (    1.662 sec)
Closing buffer KIJ ( 0.10 GB; CompressionRatio= 1.00)
(ik|jl) transformation completed in     4.109 sec

-----------------------
RI-FORMATION OF (ik|ja)
-----------------------

Max core memory to be used            ... 5000 MB
Memory needed per MO                  ...   1.0 MB
# of MOs treated in a batch           ... 9
# of batches needed                   ... 1
Data format used                      ... DOUBLE
 done (   21.725 sec)
Closing buffer KIJ ( 1.04 GB; CompressionRatio= 1.00)
(ik|ja) transformation completed in    30.343 sec

-----------------------
RI-FORMATION OF (ij|ka)
-----------------------

Max core memory to be used            ... 5000 MB
Memory needed per MO pair             ...   0.2 MB
# of MO pairs included in trafo       ... 2556
# of MO pairs treated in a batch      ... 320
# of batches needed                   ... 1
Data format used                      ... DOUBLE
 done (   14.725 sec)
Closing buffer JIJ ( 0.53 GB; CompressionRatio= 1.00)
(ij|ka) transformation completed in    18.851 sec

-----------------------
RI-FORMATION OF (ia|jb)
-----------------------

Max core memory to be used            ... 5000 MB
Memory needed per MO                  ...   6.7 MB
# of MOs treated in a batch           ... 24
# of batches needed                   ... 1
Data format used                      ... DOUBLE
 done (   40.397 sec)
Closing buffer KIJ ( 2.88 GB; CompressionRatio= 1.00)
(ia|jb) transformation completed in    41.080 sec

------------------------------
INTEGRAL RI-(ij|ab)
------------------------------

Orbital Window                         ...   30.. 100 -  101.. 489
Memory available                       ...   5000 MB

Reading internal integrals             ... done (    2.400 sec)
Generating and transforming integrals  ...
  Aux angular momentum 0               ... done (    1.031 sec)
  Aux angular momentum 1               ... done (    1.712 sec)
  Aux angular momentum 2               ... done (    2.170 sec)
  Aux angular momentum 3               ... done (    0.878 sec)
  (v|ab)                               ... done (    6.527 sec)
Orthogonalizing and resorting integrals...
  (a|vb)                               ... done (  192.777 sec)
Generating ij|ab                       ...
  (ij|ab)                              ... done (   46.944 sec)

(ij|ab) transformation completed in   256.882 sec
Closing buffer IJAB[0] ( 1.44 GB; CompressionRatio= 1.00)
 Integral transformation done in (  467.8)
  Making IJABD,IAJBD    ... done ( 7047.4)
Performing recanonicalization
Recanonicalization of T (ground state) amplitudes ... 
 T amplitudes recanonicalization done in ( 3646.3)
Recanonicalization of IP amplitudes ... 
 IP amplitudes recanonicalization done in (   26.4)
Recanonicalization of EA amplitudes ... 
 EA amplitudes recanonicalization done in (   67.9)
  Making FD             ... done ( 1213.7)
  Making IKJADs,IKJAD   ... done (  992.0)

---------------------------------------------------
           RHF STEOM-CCSD CALCULATION
---------------------------------------------------

EOM type                                   ... STEOM
Multiplicity                               ... triplet
Solver                                     ... Davidson
Convergence check                          ... for each root separately
Convergence threshold                      ... 1.00E-05
Root homing                                ... on
Preconditioning update                     ... CIS
Reduced space size (times number of roots) ... 40
Number of roots in the CIS initial guess   ... 80
Number of roots to be optimized            ... 2
Number of amplitudes to be optimized       ... 27619

--------------------------------
AUTOMATIC CHOICE OF INCORE LEVEL
--------------------------------

Memory available                           ...   5000.00 MB
Memory needed for SIP and SEA amplitudes   ...    790.40 MB
 -> Final InCoreLevel    ... 1


Making SIP amplitudes for STEOM-CCSD       ... done (  663.6)
Making SEA amplitudes for STEOM-CCSD       ... done (  781.9)
Dressing integrals for STEOM-CCSD          ... 
Dressing of Occ / Occ block ... done (  107.7)
Dressing of Virt / Virt block ... done (   18.0)

---------------------
CHAIN OF SPHERES GRID
---------------------

General Integration Accuracy     IntAcc      ... 4.020
Radial Grid Type                 RadialGrid  ... OptM3 with GC (2021)
Angular Grid (max. ang.)         AngularGrid ... 2 (Lebedev-110)
Angular grid pruning method      GridPruning ... 4 (adaptive)
Weight generation scheme         WeightScheme... Becke
Basis function cutoff            BFCut       ... 1.0000e-11
Integration weight cutoff        WCut        ... 1.0000e-14
Angular grids for H and He will be reduced by one unit
Partially contracted basis set               ... on
Rotationally invariant grid construction     ... off

Total number of grid points                  ...    62761
Total number of batches                      ...      999
Average number of points per batch           ...       62
Average number of grid points per atom       ...     1426
UseSFitting                                  ... on

 re-compute Schwartz prescreening matrix in partically contracted basis (3) ...done (   2.049 sec)
done (307670.5)
done (167181.4)
Building the initial guess                 ... done (    2.4)
Solving Root No   1 

Iter    Delta-E          Residual              Time
---------------------------------------------------
  0   0.112140114601   0.005728653618       821.991
  1   0.008037502162   0.000649448330       678.220
  2   0.002150228161   0.000180060104       670.540
  3   0.001092634574   0.000087864602       670.809
  4   0.000193508604   0.000048561313       845.389
  5   0.000137299221   0.000049932697       886.235
  6   0.000360201687   0.000017188045       773.972
  7   0.000068241094   0.000005323853       894.525

      *** CONVERGENCE OF RESIDUAL NORM REACHED ***
       --- The STEOM iterations have converged ---
Solving Root No   2 

Iter    Delta-E          Residual              Time
---------------------------------------------------
  0   0.134875901774   0.009267002928       894.424
  1   0.021003089845   0.001716062057       888.197
  2   0.003608300787   0.000254346749       930.055
  3   0.001624791332   0.000076940092       897.631
  4   0.000050797487   0.000060826164       880.515
  5   0.000120297342   0.000025221556       926.214
  6   0.000158170059   0.000012480002       917.517
  7   0.000080755435   0.000009840681       914.882

      *** CONVERGENCE OF RESIDUAL NORM REACHED ***
       --- The STEOM iterations have converged ---

------------------
STEOM-CCSD RESULTS
------------------

IROOT=  1:  0.100488 au     2.734 eV   22054.5 cm**-1
  Amplitude    Excitation
   0.106882    88 -> 101
  -0.138930    91 -> 101
   0.207309    95 -> 102
   0.206761    96 -> 101
  -0.242034    99 -> 101
   0.167175    99 -> 104
   0.834204   100 -> 101
  -0.139038   100 -> 104
  Ground state amplitude:  0.000000

Percentage Active Character     93.73

Warning:: the state may have not converged with respect to active space 
-------------------- Handle with Care -------------------- 

  Amplitude    Excitation in Canonical Basis
   0.106638    90 -> 101
  -0.139567    93 -> 101
  -0.193271    94 -> 102
  -0.103251    95 -> 102
   0.211139    96 -> 101
   0.236010    99 -> 101
   0.174909    99 -> 104
   0.830563   100 -> 101
   0.154246   100 -> 104

IROOT=  2:  0.108331 au     2.948 eV   23776.0 cm**-1
  Amplitude    Excitation
   0.112926    91 -> 107
  -0.184598    94 -> 101
   0.339416    95 -> 101
   0.119461    95 -> 104
   0.109713    95 -> 106
   0.392348    97 -> 101
   0.176203    97 -> 106
   0.220427    98 -> 101
   0.162457    98 -> 105
   0.198385    99 -> 103
   0.148372    99 -> 107
   0.274013   100 -> 102
   0.551101   100 -> 103
  Ground state amplitude:  0.000000

Percentage Active Character     92.75

Warning:: the state may have not converged with respect to active space 
-------------------- Handle with Care -------------------- 

  Amplitude    Excitation in Canonical Basis
  -0.335853    94 -> 101
   0.116339    94 -> 104
   0.119650    94 -> 106
  -0.155731    95 -> 101
  -0.426081    97 -> 101
   0.193908    97 -> 106
  -0.204930    98 -> 101
   0.159380    98 -> 105
  -0.189793    99 -> 103
  -0.163875    99 -> 107
   0.286872   100 -> 102
   0.544277   100 -> 103


STEOM-CCSD done (182134.1 sec)

------------------------------------------
NATURAL TRANSITION ORBITALS FOR STATE    1
------------------------------------------

Making the (pseudo)densities                       ... done
Solving eigenvalue problem for the occupied space  ... done
Solving eigenvalue problem for the virtual space   ... done
Natural Transition Orbitals were saved in QA_PF.s1.nto
Threshold for printing occupation numbers 0.001000

 E=   0.100488 au      2.734 eV    22054.5 cm**-1
   100a -> 101a  : n=  0.87000923
    99a -> 102a  : n=  0.06676627
    98a -> 103a  : n=  0.03642315
    97a -> 104a  : n=  0.01271700
    96a -> 105a  : n=  0.00643087
    95a -> 106a  : n=  0.00207561
    94a -> 107a  : n=  0.00197423
    93a -> 108a  : n=  0.00107447


------------------------------------------
NATURAL TRANSITION ORBITALS FOR STATE    2
------------------------------------------

Making the (pseudo)densities                       ... done
Solving eigenvalue problem for the occupied space  ... done
Solving eigenvalue problem for the virtual space   ... done
Natural Transition Orbitals were saved in QA_PF.s2.nto
Threshold for printing occupation numbers 0.001000

 E=   0.108331 au      2.948 eV    23776.0 cm**-1
   100a -> 101a  : n=  0.45656475
    99a -> 102a  : n=  0.42523857
    98a -> 103a  : n=  0.05971984
    97a -> 104a  : n=  0.02429697
    96a -> 105a  : n=  0.01264938
    95a -> 106a  : n=  0.00654193
    94a -> 107a  : n=  0.00395010
    93a -> 108a  : n=  0.00251462
    92a -> 109a  : n=  0.00235527
    91a -> 110a  : n=  0.00216485

TDM done (182136.1 sec)
STEOM-CCSD done in (182141.7)


--------------------------------------------------------------------------------
                                    TIMINGS
--------------------------------------------------------------------------------


Total execution time                   ...   321598.352 sec

Localization of occupied MO's          ...       44.089 sec (  0.0%)
Fock Matrix Formation                  ...       75.838 sec (  0.0%)
Global overlap, Fock, MKN matrices     ...        3.452 sec (  0.0%)
Differential overlap integrals         ...        7.448 sec (  0.0%)
Organizing maps                        ...        0.110 sec (  0.0%)
RI 3-index integral generations        ...       85.324 sec (  0.0%)
RI-PNO integral transformation         ...     4044.936 sec (  1.3%)
Initial Guess                          ...      145.446 sec (  0.0%)
DIIS Solver                            ...      121.718 sec (  0.0%)
State Vector Update                    ...        0.061 sec (  0.0%)
Sigma-vector construction              ...   102311.218 sec ( 31.8%)
  <0|H|D>                              ...        0.002 sec (  0.0% of sigma)
  <D|H|D>(0-ext)                       ...    63690.881 sec ( 62.3% of sigma)
  <D|H|D>(2-ext Fock)                  ...       46.295 sec (  0.0% of sigma)
  <D|H|D>(2-ext)                       ...     5142.856 sec (  5.0% of sigma)
  <D|H|D>(4-ext)                       ...      460.078 sec (  0.4% of sigma)
  <D|H|D>(4-ext-corr)                  ...     1150.171 sec (  1.1% of sigma)
  CCSD doubles correction              ...     2019.091 sec (  2.0% of sigma)
  <S|H|S>                              ...      453.431 sec (  0.4% of sigma)
  <S|H|D>(1-ext)                       ...      602.728 sec (  0.6% of sigma)
  <D|H|S>(1-ext)                       ...       67.319 sec (  0.1% of sigma)
  <S|H|D>(3-ext)                       ...      369.933 sec (  0.4% of sigma)
  CCSD singles correction              ...        0.002 sec (  0.0% of sigma)
  Fock-dressing                        ...    13540.912 sec ( 13.2% of sigma)
  Singles amplitudes                   ...     1412.879 sec (  1.4% of sigma)
  (ik|jl)-dressing                     ...     7651.546 sec (  7.5% of sigma)
  (ij|ab),(ia|jb)-dressing             ...     5503.274 sec (  5.4% of sigma)
  Pair energies                        ...        0.993 sec (  0.0% of sigma)
Total Time for computing EOM-CCSD      ...    17297.637 sec (  5.4% of ALL)
  Dressing integrals                   ...     4435.721 sec ( 25.6% of (EOM))
  Initial EOM-Guess                    ...        0.601 sec (  0.0% of (EOM))
  EOM Singles                          ...      669.178 sec (  3.9% of (EOM))
  EOM Doubles                          ...     9691.424 sec ( 56.0% of (EOM))
  Build Hamiltonian                    ...       23.034 sec (  0.1% of (EOM))
  Diagonalize Hamiltonian              ...        1.540 sec (  0.0% of (EOM))
  Ritz vectors                         ...      623.736 sec (  3.6% of (EOM))
  Residual vectors                     ...      654.922 sec (  3.8% of (EOM))
One-particle density matrix            ...      321.470 sec (  0.1%)


Maximum memory used throughout the entire MDCI-calculation: 5051.0 MB

-------------------------   --------------------
FINAL SINGLE POINT ENERGY     -1300.607570550126
-------------------------   --------------------


                            ***************************************
                            *     ORCA property calculations      *
                            ***************************************

                                    ---------------------
                                    Active property flags
                                    ---------------------
   (+) Dipole Moment


------------------------------------------------------------------------------
                       ORCA ELECTRIC PROPERTIES CALCULATION
------------------------------------------------------------------------------

Dipole Moment Calculation                       ... on
Quadrupole Moment Calculation                   ... off
Polarizability Calculation                      ... off
GBWName                                         ... QA_PF.gbw
Electron density                                ... QA_PF.scfp
The origin for moment calculation is the CENTER OF MASS  = (-0.084234,  0.000001 -0.000001)

-------------
DIPOLE MOMENT
-------------
                                X             Y             Z
Electronic contribution:    -14.76664       0.00001      -0.00002
Nuclear contribution   :     17.01556       0.00001       0.00002
                        -----------------------------------------
Total Dipole Moment    :      2.24892       0.00002      -0.00000
                        -----------------------------------------
Magnitude (a.u.)       :      2.24892
Magnitude (Debye)      :      5.71629



--------------------
Rotational spectrum 
--------------------
 
Rotational constants in cm-1:     0.008968     0.003119     0.002393 
Rotational constants in MHz :   268.844439    93.501522    71.729247 

 Dipole components along the rotational axes: 
x,y,z [a.u.] :     2.248915     0.000021    -0.000005 
x,y,z [Debye]:     5.716288     0.000054    -0.000012 

 

                           *** MDCI DENSITY ***

------------------------------------------------------------------------------
                       ORCA ELECTRIC PROPERTIES CALCULATION
------------------------------------------------------------------------------

Dipole Moment Calculation                       ... on
Quadrupole Moment Calculation                   ... off
Polarizability Calculation                      ... off
GBWName                                         ... QA_PF.gbw
Electron density                                ... QA_PF.mdcip
The origin for moment calculation is the CENTER OF MASS  = (-0.084234,  0.000001 -0.000001)

-------------
DIPOLE MOMENT
-------------
                                X             Y             Z
Electronic contribution:    -15.21352       0.00362       0.00699
Nuclear contribution   :     17.01556       0.00001       0.00002
                        -----------------------------------------
Total Dipole Moment    :      1.80204       0.00363       0.00700
                        -----------------------------------------
Magnitude (a.u.)       :      1.80205
Magnitude (Debye)      :      4.58046



--------------------
Rotational spectrum 
--------------------
 
Rotational constants in cm-1:     0.008968     0.003119     0.002393 
Rotational constants in MHz :   268.844439    93.501522    71.729247 

 Dipole components along the rotational axes: 
x,y,z [a.u.] :     1.802037     0.003644     0.006998 
x,y,z [Debye]:     4.580414     0.009262     0.017788 

 
--------------------------------------------------------------------------
WARNING: There was an error initializing an OpenFabrics device.

  Local host:   kennedy150
  Local device: mlx5_0
--------------------------------------------------------------------------
[kennedy150:00576] 7 more processes have sent help message help-mpi-btl-openib.txt / error in device init
[kennedy150:00576] Set MCA parameter "orte_base_help_aggregate" to 0 to see all help / error messages

Timings for individual modules:

Sum of individual times         ...   322134.859 sec (=5368.914 min)
GTO integral calculation        ...       21.951 sec (=   0.366 min)   0.0 %
SCF iterations                  ...      495.286 sec (=   8.255 min)   0.2 %
MDCI module                     ...   321617.623 sec (=5360.294 min)  99.8 %
                             ****ORCA TERMINATED NORMALLY****
TOTAL RUN TIME: 3 days 17 hours 29 minutes 31 seconds 377 msec
