Job H2-6-31G-OPT.FREQ.J started on node206 at Fri Dec 19 14:58:37 2014
jobid: cluster-g-0-54942ef5

  +--------------------------------------------------------------------+
  |  Jaguar version 7.8, release 111                                   |
  |                                                                    |
  |  Copyright Schrodinger, LLC                                        |
  |  All Rights Reserved.                                              |
  |                                                                    |
  |  Use of this program should be acknowledged in publications as:    |
  |  Jaguar, version 7.8, Schrodinger, LLC, New York, NY, 2010.        |
  +--------------------------------------------------------------------+
   
  start of program pre
   
  Job name: H2-6-31G-OPT.FREQ.J
  Executables used: /afs/math/software/schrodinger/2011.1/jaguar-v78111/bin/Linux-x86_64
  Temporary files : /net/lustre/pelment/H2-6-31G-OPT.FREQ.J
  
  
  basis set:             6-31g           
  net molecular charge:    0
  multiplicity:            1
  
  number of basis functions....            4
  
 Input geometry:
                                   angstroms
  atom               x                 y                 z
  H1            0.0000000000      0.0000000000      0.3751260276 
  H2            0.0000000000      0.0000000000     -0.3751260276 
   
  principal moments of inertia:
        amu*angstrom^2:        0.00000        0.28364        0.28364
                g*cm^2: 0.00000000E+00 4.70997472E-41 4.70997472E-41
   
  rotational constants:
               cm^(-1):       infinite    59.43290549    59.43290549
                   GHz:       infinite  1781.75368226  1781.75368226
   
  Molecular weight:       2.02 amu
   
  Stoichiometry: H2
  Molecule is linear 
  Molecular Point Group: D_inf_h 
	Molecule translated to center of mass 
	Molecule reoriented along symmetry axes
  Point Group used: D_inf_h
  
  
 Symmetrized geometry:
                                   angstroms
  atom               x                 y                 z
  H1            0.0000000000      0.0000000000      0.3751260276 
  H2            0.0000000000      0.0000000000     -0.3751260276 
   
  nuclear repulsion energy.......       0.705332571 hartrees
 
 Non-default options chosen:
   HF Initial guess: read from Jaguar .in file
   SCF calculation type: DFT(pbe)        
   DFT=PBE(X+LC)+PW91 (PBE)
   Vibrational frequencies and related properties will be computed
      from analytic second derivatives
   IR intensities will be computed
   Mulliken populations computed by atom
  
  atom       vdw   vdw2    cov     mass  grid  daf  charge   basis
  H1        1.597  1.150  0.320    1.008    Y    Y      Y    6-31g
  H2        1.597  1.150  0.320    1.008    Y    Y      Y    6-31g
  
  Peak memory usage:    312 Mb
  
  end of program pre
   
 Time(pre)  user:        0.0  user+sys:        0.0  wallclock:        0.4
   
  start of program onee
  smallest eigenvalue of S:    9.834E-02
  number of canonical orbitals.....            4
  Peak memory usage:    497 Mb
  
  end of program onee
   
 Time(onee)  user:        0.0  user+sys:        0.0  wallclock:        0.2
   
  start of program hfig
  initial wavefunction read from .in file
  reading wavefunction from input file
           4  orbitals read from .in file
  virtual orbitals input are ignored
  Largest Normalization error   2.827071909905499E-011
  RMS Normalization error   2.827071909905499E-011
 
  Irreducible     Total no   No of occupied orbitals 
  representation  orbitals   Shell_1  Shell_2    ...
  Sig_g+             2          1
  Sig_g-             0          0
  Del_g_1            0          0
  Del_g_2            0          0
  Pi_g_2             0          0
  Pi_g_1             0          0
  Sig_u+             0          0
  Sig_u-             2          0
  Del_u_1            0          0
  Del_u_2            0          0
  Pi_u_2             0          0
  Pi_u_1             0          0
  ------------------------
  Orbital occupation/shell    1.000
 
  Peak memory usage:    410 Mb
  
  end of program hfig
   
 Time(hfig)  user:        0.0  user+sys:        0.0  wallclock:        0.1
   
  start of program probe
  Peak memory usage:    410 Mb
  
  end of program probe
   
 Time(probe)  user:        0.0  user+sys:        0.0  wallclock:        0.3
   
  start of program grid
  
   grid     grid set  grid #  grid sym
  ------    --------  ------  --------
  coarse        0        0        1
  medium        2        1       16
  fine          0        0        1
  ultrafine     4        2       16
  charge        0        0        1
  gradient      4        2       16
  density       0        0        1
  DFT-fine    -11        3       16
  DFT-med.    -10        4       16
  DFT-grad    -12        5       16
  DFT-der2     -8        6       16
  DFT-cphf     -9        7       16
  LMP2-enrg     4        2       16
  LMP2-grad     2        1       16
  DFT-cphf2   -15        8       16
  PBF-dens      0        0        1
  plotting      0        0        1
  
   
  number of gridpoints: 
     atom        H1       H2    total
  grid # 1       26        0       26
  grid # 2       96        0       96
  grid # 3      939        0      939
  grid # 4      337        0      337
  grid # 5     1079        0     1079
  grid # 6     2411        0     2411
  grid # 7      187        0      187
  grid # 8      106        0      106
   
  Peak memory usage:    432 Mb
  
  end of program grid
   
 Time(grid)  user:        0.0  user+sys:        0.0  wallclock:        0.3
   
  start of program rwr
  Peak memory usage:    299 Mb
  
  end of program rwr
   
 Time(rwr)  user:        0.0  user+sys:        0.0  wallclock:        0.2
   
  start of program scf
 number of electrons..........          2
 number of alpha electrons....          1
 number of beta electrons.....          1
 number of orbitals, total....          4
 number of doubly-occ'd orbs..          1
 number of open shell orbs....          0
 number of occupied orbitals..          1
 number of virtual orbitals...          3
 number of hamiltonians.......          1
 number of shells.............          1
 SCF type: DFT=PBE(X+LC)+PW91 (PBE)
  
       i  u  d  i  g                   
       t  p  i  c  r                                 RMS    maximum
       e  d  i  u  i                       energy  density   DIIS  
       r  t  s  t  d       total energy    change  change    error 
  
etot   1  N  N  2  U      -1.16197635892           3.1E-07  1.1E-06
etot   2  N  N  2  U      -1.16197635892  1.9E-12  0.0E+00  0.0E+00
  
  
 Energy components, in hartrees:
   (A)  Nuclear repulsion............       0.70533257074
   (E)  Total one-electron terms.....      -2.48356740303
   (I)  Total two-electron terms.....       0.61625847337
   (J)    Coulomb....................       1.30370457461
   (K)    Exchange+Correlation.......      -0.68744610124
   (L)  Electronic energy............      -1.86730892967  (E+I)
   (N)  Total energy.................      -1.16197635892  (A+L)
  
 SCFE: SCF energy: DFT(pbe)        -1.16197635892 hartrees   iterations:   2
  
 
 HOMO energy:    -0.37935
 LUMO energy:     0.07689
 
  Orbital energies (hartrees)/symmetry label: 
    -0.37935 Sig_g+      0.07689 Sig_u-      0.55648 Sig_g+      1.04771 Sig_u- 
 
  Peak memory usage:    493 Mb
  
  end of program scf
   
 Time(scf)  user:        0.0  user+sys:        0.0  wallclock:        0.8
   
  start of program ch
  Atomic charges from Mulliken population analysis: 
   
 Atom       H1           H2      
 Charge    0.00000      0.00000
  
  sum of atomic charges:     0.000000
   
  Peak memory usage:    348 Mb
  
  end of program ch
   
 Time(ch)  user:        0.0  user+sys:        0.0  wallclock:        0.2
   
  start of program cutabab2
  Peak memory usage:    419 Mb
  
  end of program cutabab2
   
 Time(cutabab2)  user:        0.0  user+sys:        0.0  wallclock:        0.2
   
  start of program der2a
  Peak memory usage:    498 Mb
  
  end of program der2a
   
 Time(der2a)  user:        0.0  user+sys:        0.0  wallclock:        0.1
   
  start of program grid
  
   Turning symmetry off because some of the
   following programs cannot use it.
  
   grid     grid set  grid #  grid sym
  ------    --------  ------  --------
  coarse        0        0        1
  medium        2        1       16
  fine          0        0        1
  ultrafine     4        2       16
  charge        0        0        1
  gradient      4        2       16
  density       0        0        1
  DFT-fine    -11        3       16
  DFT-med.    -10        4       16
  DFT-grad    -12        5       16
  DFT-der2     -8        6       16
  DFT-cphf     -9        7       16
  LMP2-enrg     4        2       16
  LMP2-grad     2        1       16
  DFT-cphf2   -15        8       16
  PBF-dens      0        0        1
  plotting      0        0        1
  
   
  number of gridpoints: 
     atom        H1       H2    total
  grid # 1      108      108      216
  grid # 2      435      435      870
  grid # 3     4304     4304     8608
  grid # 4     1192     1192     2384
  grid # 5     5226     5226    10452
  grid # 6    13718    13718    27436
  grid # 7      744      744     1488
  grid # 8      382      382      764
   
  Peak memory usage:    435 Mb
  
  end of program grid
   
 Time(grid)  user:        0.0  user+sys:        0.0  wallclock:        0.3
   
  start of program der2b
  Peak memory usage:    554 Mb
  
  end of program der2b
   
 Time(der2b)  user:        0.0  user+sys:        0.0  wallclock:        0.2
   
  start of program der2nda
  Peak memory usage:    497 Mb
  
  end of program der2nda
   
 Time(der2nda)  user:        0.0  user+sys:        0.0  wallclock:        0.1
   
  start of program der2ndb
  Peak memory usage:    419 Mb
  
  end of program der2ndb
   
 Time(der2ndb)  user:        0.0  user+sys:        0.0  wallclock:        1.6
   
  start of program rwr
  Peak memory usage:    299 Mb
  
  end of program rwr
   
 Time(rwr)  user:        0.0  user+sys:        0.0  wallclock:        0.1
   
  start of program cphfa
       1  vectors produced in CPHF
  
     v    i  j  k  i  g
     e    t  c  c  c  r
     c    e  o  o  u  i
     t    r  r  r  t  d       RMS  
  
     1    1  0  0  6  M     4.6E-01
     1    2  0  0  6  M     2.7E-09
  
  
  Atomic Polar Tensors (au): Total
  =========================
  
  APT for atom H1      
  --------------------------------------
        0.0000       0.0000       0.0000
        0.0000       0.0000       0.0000
        0.0000       0.0000       0.0000
  --------------------------------------
  
  APT for atom H2      
  --------------------------------------
        0.0000       0.0000       0.0000
        0.0000       0.0000       0.0000
        0.0000       0.0000       0.0000
  --------------------------------------
  
  Peak memory usage:    492 Mb
  
  end of program cphfa
   
 Time(cphfa)  user:        0.0  user+sys:        0.0  wallclock:        0.4
   
  start of program freq
   
  harmonic frequencies in cm**-1, reduced masses in amu,
  force constants in mDyne/A, and
  normal modes in cartesian coordinates:
  IR intensities in km/mol
  
  frequencies      4354.66
  symmetries       Sig_g+  
  intensities         0.00
  reduc. mass         0.50
  force const         5.63
    H1       X     0.00000
    H1       Y     0.00000
    H1       Z    -0.70436
    H2       X     0.00000
    H2       Y     0.00000
    H2       Z     0.70436
  
  Writing vibrational animation data to H2-6-31G-OPT.FREQ.J.vib
  Writing vibrational spectrum data to H2-6-31G-OPT.FREQ.J_vib.spm
  
  Thermochemical properties at    1.0000 atm
  
  rotational symmetry number:  2

  rotational temperatures (K):  85.510597  85.510597
   
  vibrational temperatures:
       mode:      1
  temp. (K):  6265.37
   
   
  Thermodynamic properties calculated assuming an ideal gas

  In the table below, the units for temperature
  are kelvins, the units for U, H, and G are
  kcal/mol and the units for Cv and S are cal/(mol K)

  The zero point energy (ZPE):      6.225 kcal/mol
  is not included in U, H, or G in the table below


  T =   298.15 K
   
              U         Cv          S          H          G        ln(Q)
          ---------  ---------  ---------  ---------  ---------  ---------
  trans.      0.889      2.981     28.080      1.481     -6.891   11.63054
    rot.      0.592      1.987      3.092      0.592     -0.329    0.55581
    vib.      0.000      0.000      0.000      0.000      0.000    0.00000
   elec.      0.000      0.000      0.000      0.000      0.000    0.00000
   total      1.481      4.968     31.172      2.074     -7.220   12.18635
   
  Total internal energy, Utot (SCFE + ZPE + U):      -1.149695 hartrees
              Total enthalpy, Htot (Utot + pV):      -1.148751 hartrees
    Total Gibbs free energy, Gtot (Htot - T*S):      -1.163562 hartrees
   
  Peak memory usage:    290 Mb
  
  end of program freq
   
 Time(freq)  user:        0.0  user+sys:        0.0  wallclock:        0.3

 Total cpu seconds     user:       0.000   user+sys:       0.000
  
 Total elapsed time:    12 seconds

Job H2-6-31G-OPT.FREQ.J completed on node206 at Fri Dec 19 14:58:49 2014
