 Entering Gaussian System, Link 0=g09
 Initial command:
 //home/renato/Gaussian09/g09/l1.exe /home/renato/scratch/Gau-22253.inp -scrdir=/home/renato/scratch/
 Entering Link 1 = //home/renato/Gaussian09/g09/l1.exe PID=     22254.
  
 Copyright (c) 1988,1990,1992,1993,1995,1998,2003,2009,2011,
            Gaussian, Inc.  All Rights Reserved.
  
 This is part of the Gaussian(R) 09 program.  It is based on
 the Gaussian(R) 03 system (copyright 2003, Gaussian, Inc.),
 the Gaussian(R) 98 system (copyright 1998, Gaussian, Inc.),
 the Gaussian(R) 94 system (copyright 1995, Gaussian, Inc.),
 the Gaussian 92(TM) system (copyright 1992, Gaussian, Inc.),
 the Gaussian 90(TM) system (copyright 1990, Gaussian, Inc.),
 the Gaussian 88(TM) system (copyright 1988, Gaussian, Inc.),
 the Gaussian 86(TM) system (copyright 1986, Carnegie Mellon
 University), and the Gaussian 82(TM) system (copyright 1983,
 Carnegie Mellon University). Gaussian is a federally registered
 trademark of Gaussian, Inc.
  
 This software contains proprietary and confidential information,
 including trade secrets, belonging to Gaussian, Inc.
  
 This software is provided under written license and may be
 used, copied, transmitted, or stored only in accord with that
 written license.
  
 The following legend is applicable only to US Government
 contracts under FAR:
  
                    RESTRICTED RIGHTS LEGEND
  
 Use, reproduction and disclosure by the US Government is
 subject to restrictions as set forth in subparagraphs (a)
 and (c) of the Commercial Computer Software - Restricted
 Rights clause in FAR 52.227-19.
  
 Gaussian, Inc.
 340 Quinnipiac St., Bldg. 40, Wallingford CT 06492
  
  
 ---------------------------------------------------------------
 Warning -- This program may not be used in any manner that
 competes with the business of Gaussian, Inc. or will provide
 assistance to any competitor of Gaussian, Inc.  The licensee
 of this program is prohibited from giving any competitor of
 Gaussian, Inc. access to this program.  By using this program,
 the user acknowledges that Gaussian, Inc. is engaged in the
 business of creating and licensing software in the field of
 computational chemistry and represents and warrants to the
 licensee that it is not a competitor of Gaussian, Inc. and that
 it will not use this program in any manner prohibited above.
 ---------------------------------------------------------------
  

 Cite this work as:
 Gaussian 09, Revision C.01,
 M. J. Frisch, G. W. Trucks, H. B. Schlegel, G. E. Scuseria, 
 M. A. Robb, J. R. Cheeseman, G. Scalmani, V. Barone, B. Mennucci, 
 G. A. Petersson, H. Nakatsuji, M. Caricato, X. Li, H. P. Hratchian, 
 A. F. Izmaylov, J. Bloino, G. Zheng, J. L. Sonnenberg, M. Hada, 
 M. Ehara, K. Toyota, R. Fukuda, J. Hasegawa, M. Ishida, T. Nakajima, 
 Y. Honda, O. Kitao, H. Nakai, T. Vreven, J. A. Montgomery, Jr., 
 J. E. Peralta, F. Ogliaro, M. Bearpark, J. J. Heyd, E. Brothers, 
 K. N. Kudin, V. N. Staroverov, T. Keith, R. Kobayashi, J. Normand, 
 K. Raghavachari, A. Rendell, J. C. Burant, S. S. Iyengar, J. Tomasi, 
 M. Cossi, N. Rega, J. M. Millam, M. Klene, J. E. Knox, J. B. Cross, 
 V. Bakken, C. Adamo, J. Jaramillo, R. Gomperts, R. E. Stratmann, 
 O. Yazyev, A. J. Austin, R. Cammi, C. Pomelli, J. W. Ochterski, 
 R. L. Martin, K. Morokuma, V. G. Zakrzewski, G. A. Voth, 
 P. Salvador, J. J. Dannenberg, S. Dapprich, A. D. Daniels, 
 O. Farkas, J. B. Foresman, J. V. Ortiz, J. Cioslowski, 
 and D. J. Fox, Gaussian, Inc., Wallingford CT, 2010.
 
 ******************************************
 Gaussian 09:  EM64L-G09RevC.01 23-Sep-2011
                10-Aug-2018 
 ******************************************
 %nproc=4
 Will use up to    4 processors via shared memory.
 %mem=1750MB
 %chk=AcO-_0
 ----------------------------------------------------------------------
 #p wB97XD/6-311++G** opt=(redundant,maxcycles=140) freq=noraman scrf=(
 solvent=water,smd) pop=(full,nbo) scf=(tight,maxcycle=70) integral=(ac
 c2e=12,grid=ultrafine)
 ----------------------------------------------------------------------
 1/6=140,14=-1,18=20,19=15,26=3,38=1/1,3;
 2/9=110,12=2,17=6,18=5,40=1/2;
 3/5=4,6=6,7=1111,11=2,16=1,25=1,30=1,70=32201,71=1,72=1,74=-58,75=-5/1,2,3;
 4//1;
 5/5=2,7=70,32=2,38=5,53=1,87=12/2;
 6/7=3,28=1/1,7;
 7/87=12/1,2,3,16;
 1/6=140,14=-1,18=20,19=15/3(2);
 2/9=110/2;
 99//99;
 2/9=110/2;
 3/5=4,6=6,7=1111,11=2,16=1,25=1,30=1,70=32205,71=1,72=1,74=-58,75=-5/1,2,3;
 4/5=5,16=3/1;
 5/5=2,7=70,32=2,38=5,53=1,87=12/2;
 7/87=12/1,2,3,16;
 1/6=140,14=-1,18=20,19=15/3(-5);
 2/9=110/2;
 6/7=3,19=2,28=1/1,7;
 99/9=1/99;
 Leave Link    1 at Fri Aug 10 08:52:20 2018, MaxMem=  229376000 cpu:       0.3
 (Enter //home/renato/Gaussian09/g09/l101.exe)
 -------------
 AcO-/AcO-.xyz
 -------------
 Charge = -1 Multiplicity = 1
 Symbolic Z-Matrix:
 C                    -0.17517   0.00436  -0.00234 
 C                     1.34613   0.03366   0.00086 
 H                     1.73424   1.06417  -0.00881 
 H                     1.72135  -0.51318  -0.8876 
 H                     1.72084  -0.497     0.90038 
 O                    -0.80065   1.09815  -0.01498 
 O                    -0.72463  -1.13381   0.01362 
 
 NAtoms=      7 NQM=        0 NQMF=       0 NMMI=      7 NMMIF=      0
                NMic=       0 NMicF=      0.
                    Isotopes and Nuclear Properties:
 (Nuclear quadrupole moments (NQMom) in fm**2, nuclear magnetic moments (NMagM)
  in nuclear magnetons)

  Atom         1           2           3           4           5           6           7
 IAtWgt=          12          12           1           1           1          16          16
 AtmWgt=  12.0000000  12.0000000   1.0078250   1.0078250   1.0078250  15.9949146  15.9949146
 NucSpn=           0           0           1           1           1           0           0
 AtZEff=   0.0000000   0.0000000   0.0000000   0.0000000   0.0000000   0.0000000   0.0000000
 NQMom=    0.0000000   0.0000000   0.0000000   0.0000000   0.0000000   0.0000000   0.0000000
 NMagM=    0.0000000   0.0000000   2.7928460   2.7928460   2.7928460   0.0000000   0.0000000
 Leave Link  101 at Fri Aug 10 08:52:20 2018, MaxMem=  229376000 cpu:       0.4
 (Enter //home/renato/Gaussian09/g09/l103.exe)

 GradGradGradGradGradGradGradGradGradGradGradGradGradGradGradGradGradGrad
 Berny optimization.
 Initialization pass.
                           ----------------------------
                           !    Initial Parameters    !
                           ! (Angstroms and Degrees)  !
 --------------------------                            --------------------------
 ! Name  Definition              Value          Derivative Info.                !
 --------------------------------------------------------------------------------
 ! R1    R(1,2)                  1.5216         estimate D2E/DX2                !
 ! R2    R(1,6)                  1.2601         estimate D2E/DX2                !
 ! R3    R(1,7)                  1.264          estimate D2E/DX2                !
 ! R4    R(2,3)                  1.1012         estimate D2E/DX2                !
 ! R5    R(2,4)                  1.1087         estimate D2E/DX2                !
 ! R6    R(2,5)                  1.1096         estimate D2E/DX2                !
 ! A1    A(2,1,6)              118.6591         estimate D2E/DX2                !
 ! A2    A(2,1,7)              116.8684         estimate D2E/DX2                !
 ! A3    A(6,1,7)              124.4718         estimate D2E/DX2                !
 ! A4    A(1,2,3)              111.7383         estimate D2E/DX2                !
 ! A5    A(1,2,4)              109.0986         estimate D2E/DX2                !
 ! A6    A(1,2,5)              109.2771         estimate D2E/DX2                !
 ! A7    A(3,2,4)              109.5881         estimate D2E/DX2                !
 ! A8    A(3,2,5)              109.6119         estimate D2E/DX2                !
 ! A9    A(4,2,5)              107.4261         estimate D2E/DX2                !
 ! D1    D(6,1,2,3)              0.0            estimate D2E/DX2                !
 ! D2    D(6,1,2,4)           -121.3326         estimate D2E/DX2                !
 ! D3    D(6,1,2,5)            121.4838         estimate D2E/DX2                !
 ! D4    D(7,1,2,3)           -179.7176         estimate D2E/DX2                !
 ! D5    D(7,1,2,4)             58.9499         estimate D2E/DX2                !
 ! D6    D(7,1,2,5)            -58.2337         estimate D2E/DX2                !
 --------------------------------------------------------------------------------
 Trust Radius=3.00D-01 FncErr=1.00D-07 GrdErr=1.00D-06
 Number of steps in this run=    100 maximum allowed number of steps=    100.
 GradGradGradGradGradGradGradGradGradGradGradGradGradGradGradGradGradGrad

 Leave Link  103 at Fri Aug 10 08:52:21 2018, MaxMem=  229376000 cpu:       0.0
 (Enter //home/renato/Gaussian09/g09/l202.exe)
                          Input orientation:                          
 ---------------------------------------------------------------------
 Center     Atomic      Atomic             Coordinates (Angstroms)
 Number     Number       Type             X           Y           Z
 ---------------------------------------------------------------------
      1          6           0       -0.175170    0.004358   -0.002338
      2          6           0        1.346131    0.033658    0.000855
      3          1           0        1.734236    1.064174   -0.008811
      4          1           0        1.721350   -0.513179   -0.887599
      5          1           0        1.720844   -0.497003    0.900381
      6          8           0       -0.800648    1.098155   -0.014980
      7          8           0       -0.724626   -1.133810    0.013618
 ---------------------------------------------------------------------
                    Distance matrix (angstroms):
                    1          2          3          4          5
     1  C    0.000000
     2  C    1.521586   0.000000
     3  H    2.183823   1.101219   0.000000
     4  H    2.155996   1.108679   1.805679   0.000000
     5  H    2.158965   1.109575   1.806678   1.788053   0.000000
     6  O    1.260069   2.396260   2.535119   3.117424   3.120951
     7  O    1.263956   2.377221   3.298127   2.679584   2.678095
                    6          7
     6  O    0.000000
     7  O    2.233443   0.000000
 Stoichiometry    C2H3O2(1-)
 Framework group  C1[X(C2H3O2)]
 Deg. of freedom    15
 Full point group                 C1      NOp   1
 Largest Abelian subgroup         C1      NOp   1
 Largest concise Abelian subgroup C1      NOp   1
                         Standard orientation:                         
 ---------------------------------------------------------------------
 Center     Atomic      Atomic             Coordinates (Angstroms)
 Number     Number       Type             X           Y           Z
 ---------------------------------------------------------------------
      1          6           0       -0.175211   -0.002503    0.001571
      2          6           0        1.345665   -0.048952   -0.000268
      3          1           0        1.722101   -1.083828   -0.003377
      4          1           0        1.725892    0.482183    0.895552
      5          1           0        1.727495    0.488921   -0.892488
      6          8           0       -0.813011   -1.089233   -0.000526
      7          8           0       -0.711766    1.141914   -0.000412
 ---------------------------------------------------------------------
 Rotational constants (GHZ):     11.7182551      9.9205128      5.5629001
 Leave Link  202 at Fri Aug 10 08:52:21 2018, MaxMem=  229376000 cpu:       0.0
 (Enter //home/renato/Gaussian09/g09/l301.exe)
 Standard basis: 6-311++G(d,p) (5D, 7F)
 Ernie: Thresh=  0.10000D-02 Tol=  0.10000D-05 Strict=F.
 There are   109 symmetry adapted basis functions of A   symmetry.
 Integral buffers will be    131072 words long.
 Raffenetti 2 integral format.
 Two-electron integral symmetry is turned on.
   109 basis functions,   171 primitive gaussians,   113 cartesian basis functions
    16 alpha electrons       16 beta electrons
       nuclear repulsion energy       111.9391572635 Hartrees.
 IExCor= 4639 DFT=T Ex+Corr=wB97XD ExCW=0 ScaHFX=  1.000000
 ScaDFX=  1.000000  1.000000  1.000000  1.000000 ScalE2=  1.000000  1.000000
 IRadAn=      5 IRanWt=     -1 IRanGd=            0 ICorTp=0
  HFx wShort=  0.000000 wLong=  0.200000 cFull=  0.222036 cShort=  0.000000 cLong=  0.777964
  DFx wShort=  0.000000 wLong=  0.200000 cFull=  0.000000 cShort=  0.000000 cLong=  1.000000
 NAtoms=    7 NActive=    7 NUniq=    7 SFac= 1.00D+00 NAtFMM=   60 NAOKFM=F Big=F
 R6Disp: Dispersion energy =        -0.0012968239 Hartrees.
 Nuclear repulsion after empirical dispersion term =      111.9378604395 Hartrees.
 ------------------------------------------------------------------------------
 Polarizable Continuum Model (PCM)
 =================================
 Model                : PCM.
 Atomic radii         : SMD-Coulomb.
 Polarization charges : Total charges.
 Charge compensation  : None.
 Solution method      : Matrix inversion.
 Cavity type          : VdW (van der Waals Surface) (Alpha=1.000).
 Cavity algorithm     : GePol (No added spheres)
                        Default sphere list used, NSphG=    7.
                        Lebedev-Laikov grids with approx.  5.0 points / Ang**2.
                        Smoothing algorithm: Karplus/York (Gamma=1.0000).
                        Polarization charges: spherical gaussians, with
                                              point-specific exponents (IZeta= 3).
                        Self-potential: point-specific (ISelfS= 7).
                        Self-field    : sphere-specific E.n sum rule (ISelfD= 2).
 1st derivatives      : Analytical E(r).r(x)/FMM algorithm (CHGder, D1EAlg=3).
                        Cavity 1st derivative terms included.
 Solvent              : Water, Eps=  78.355300 Eps(inf)=   1.777849
 ------------------------------------------------------------------------------
 Spheres list:
 ISph  on   Nord    Re0     Alpha      Xe            Ye            Ze
    1   C      1    1.850   1.000     -0.175211     -0.002503      0.001571
    2   C      2    1.850   1.000      1.345665     -0.048952     -0.000268
    3   H      3    1.200   1.000      1.722101     -1.083828     -0.003377
    4   H      4    1.200   1.000      1.725892      0.482183      0.895552
    5   H      5    1.200   1.000      1.727495      0.488921     -0.892488
    6   O      6    1.520   1.000     -0.813011     -1.089233     -0.000526
    7   O      7    1.520   1.000     -0.711766      1.141914     -0.000412
 ------------------------------------------------------------------------------
 GePol: Number of generator spheres                  =       7
 GePol: Total number of spheres                      =       7
 GePol: Number of exposed spheres                    =       7 (100.00%)
 GePol: Number of points                             =     620
 GePol: Average weight of points                     =       0.13
 GePol: Minimum weight of points                     =   0.32D-06
 GePol: Maximum weight of points                     =    0.21991
 GePol: Number of points with low weight             =      21
 GePol: Fraction of low-weight points (<1% of avg)   =       3.39%
 GePol: Cavity surface area                          =     80.958 Ang**2
 GePol: Cavity volume                                =     57.254 Ang**3
 ------------------------------------------------------------------------------
 Atomic radii for non-electrostatic terms: SMD-CDS.
 ------------------------------------------------------------------------------
 PCM non-electrostatic energy =         0.0060803222 Hartrees.
 Nuclear repulsion after PCM non-electrostatic terms =      111.9439407617 Hartrees.
 Leave Link  301 at Fri Aug 10 08:52:21 2018, MaxMem=  229376000 cpu:       0.3
 (Enter //home/renato/Gaussian09/g09/l302.exe)
 NPDir=0 NMtPBC=     1 NCelOv=     1 NCel=       1 NClECP=     1 NCelD=      1
         NCelK=      1 NCelE2=     1 NClLst=     1 CellRange=     0.0.
 One-electron integrals computed using PRISM.
 NBasis=   109 RedAO= T  NBF=   109
 NBsUse=   109 1.00D-06 NBFU=   109
 Precomputing XC quadrature grid using
 IXCGrd= 2 IRadAn=           5 IRanWt=          -1 IRanGd=           0 AccXCQ= 0.00D+00.
 NRdTot=     594 NPtTot=      159230 NUsed=      163492 NTot=      163524
 NSgBfM=   113   113   113   113   113 NAtAll=     7     7.
 Leave Link  302 at Fri Aug 10 08:52:21 2018, MaxMem=  229376000 cpu:       0.8
 (Enter //home/renato/Gaussian09/g09/l303.exe)
 DipDrv:  MaxL=1.
 Leave Link  303 at Fri Aug 10 08:52:21 2018, MaxMem=  229376000 cpu:       0.2
 (Enter //home/renato/Gaussian09/g09/l401.exe)
 Harris functional with IExCor= 4639 diagonalized for initial guess.
 ExpMin= 3.60D-02 ExpMax= 8.59D+03 ExpMxC= 1.30D+03 IAcc=3 IRadAn=         5 AccDes= 0.00D+00
 HarFok:  IExCor= 4639 AccDes= 0.00D+00 IRadAn=         5 IDoV= 1
 ScaDFX=  1.000000  1.000000  1.000000  1.000000
 FoFCou: FMM=F IPFlag=           0 FMFlag=      100000 FMFlg1=           0
         NFxFlg=           0 DoJE=T BraDBF=F KetDBF=T FulRan=T
         Omega=  0.000000  0.000000  1.000000  0.000000  0.000000 ICntrl=     500 IOpCl=  0
         NMat0=    1 NMatS0=    1 NMatT0=    0 NMatD0=    1 NMtDS0=    0 NMtDT0=    0
         I1Cent=           4 NGrid=           0.
 Petite list used in FoFCou.
 Harris En= -219.758203462549    
 Initial guess orbital symmetries:
       Occupied  (A) (A) (A) (A) (A) (A) (A) (A) (A) (A) (A) (A)
                 (A) (A) (A) (A)
       Virtual   (A) (A) (A) (A) (A) (A) (A) (A) (A) (A) (A) (A)
                 (A) (A) (A) (A) (A) (A) (A) (A) (A) (A) (A) (A)
                 (A) (A) (A) (A) (A) (A) (A) (A) (A) (A) (A) (A)
                 (A) (A) (A) (A) (A) (A) (A) (A) (A) (A) (A) (A)
                 (A) (A) (A) (A) (A) (A) (A) (A) (A) (A) (A) (A)
                 (A) (A) (A) (A) (A) (A) (A) (A) (A) (A) (A) (A)
                 (A) (A) (A) (A) (A) (A) (A) (A) (A) (A) (A) (A)
                 (A) (A) (A) (A) (A) (A) (A) (A) (A)
 The electronic state of the initial guess is 1-A.
 Leave Link  401 at Fri Aug 10 08:52:22 2018, MaxMem=  229376000 cpu:       4.5
 (Enter //home/renato/Gaussian09/g09/l502.exe)
 Closed shell SCF:
 Requested convergence on RMS density matrix=1.00D-08 within  70 cycles.
 Requested convergence on MAX density matrix=1.00D-06.
 Requested convergence on             energy=1.00D-06.
 No special actions if energy rises.
 Using DIIS extrapolation, IDIIS=  1040.
 Integral symmetry usage will be decided dynamically.
       163416 words used for storage of precomputed grid.
 IEnd=      209613 IEndB=      209613 NGot=   229376000 MDV=   229184310
 LenX=   229184310 LenY=   229171100
 Fock matrices will be formed incrementally for  20 cycles.

 Cycle   1  Pass 1  IDiag  1:
 FoFJK:  IHMeth= 1 ICntrl=     0 DoSepK=T KAlg= 1 I1Cent= 0 FoldK=F
 FoFCou: FMM=F IPFlag=           0 FMFlag=      100000 FMFlg1=           0
         NFxFlg=           0 DoJE=T BraDBF=F KetDBF=F FulRan=T
         Omega=  0.000000  0.000000  1.000000  0.000000  0.000000 ICntrl=     500 IOpCl=  0
         NMat0=    1 NMatS0=    1 NMatT0=    0 NMatD0=    1 NMtDS0=    0 NMtDT0=    0
         I1Cent=           0 NGrid=           0.
 Symmetry not used in FoFCou.
 E= -228.592665550026    
 DIIS: error= 1.07D-01 at cycle   1 NSaved=   1.
 NSaved= 1 IEnMin= 1 EnMin= -228.592665550026     IErMin= 1 ErrMin= 1.07D-01
 ErrMax= 1.07D-01 EMaxC= 1.00D-01 BMatC= 4.43D-01 BMatP= 4.43D-01
 IDIUse=3 WtCom= 0.00D+00 WtEn= 1.00D+00
 Coeff-Com:  0.100D+01
 Coeff-En:   0.100D+01
 Coeff:      0.100D+01
 Gap=     0.404 Goal=   None    Shift=    0.000
 GapD=    0.404 DampG=2.000 DampE=0.250 DampFc=0.5000 IDamp=-1.
 Damping current iteration by 5.00D-01
 RMSDP=5.67D-03 MaxDP=1.81D-01              OVMax= 5.84D-02

 Cycle   2  Pass 1  IDiag  1:
 RMSU=  1.83D-03    CP:  9.45D-01
 FoFJK:  IHMeth= 1 ICntrl=     0 DoSepK=T KAlg= 1 I1Cent= 0 FoldK=F
 E= -228.614410411549     Delta-E=       -0.021744861523 Rises=F Damp=T
 DIIS: error= 5.05D-02 at cycle   2 NSaved=   2.
 NSaved= 2 IEnMin= 2 EnMin= -228.614410411549     IErMin= 2 ErrMin= 5.05D-02
 ErrMax= 5.05D-02 EMaxC= 1.00D-01 BMatC= 9.66D-02 BMatP= 4.43D-01
 IDIUse=3 WtCom= 4.95D-01 WtEn= 5.05D-01
 Coeff-Com: -0.822D+00 0.182D+01
 Coeff-En:   0.000D+00 0.100D+01
 Coeff:     -0.407D+00 0.141D+01
 Gap=     0.389 Goal=   None    Shift=    0.000
 RMSDP=3.37D-03 MaxDP=1.04D-01 DE=-2.17D-02 OVMax= 2.51D-02

 Cycle   3  Pass 1  IDiag  1:
 RMSU=  6.00D-04    CP:  8.78D-01  2.14D+00
 FoFJK:  IHMeth= 1 ICntrl=     0 DoSepK=T KAlg= 1 I1Cent= 0 FoldK=F
 E= -228.634556939055     Delta-E=       -0.020146527506 Rises=F Damp=F
 DIIS: error= 4.05D-03 at cycle   3 NSaved=   3.
 NSaved= 3 IEnMin= 3 EnMin= -228.634556939055     IErMin= 3 ErrMin= 4.05D-03
 ErrMax= 4.05D-03 EMaxC= 1.00D-01 BMatC= 1.38D-03 BMatP= 9.66D-02
 IDIUse=3 WtCom= 9.59D-01 WtEn= 4.05D-02
 Coeff-Com: -0.237D+00 0.514D+00 0.723D+00
 Coeff-En:   0.000D+00 0.000D+00 0.100D+01
 Coeff:     -0.228D+00 0.493D+00 0.734D+00
 Gap=     0.386 Goal=   None    Shift=    0.000
 RMSDP=4.86D-04 MaxDP=8.67D-03 DE=-2.01D-02 OVMax= 9.19D-03

 Cycle   4  Pass 1  IDiag  1:
 RMSU=  1.78D-04    CP:  8.70D-01  2.29D+00  9.46D-01
 FoFJK:  IHMeth= 1 ICntrl=     0 DoSepK=T KAlg= 1 I1Cent= 0 FoldK=F
 E= -228.635524888301     Delta-E=       -0.000967949247 Rises=F Damp=F
 DIIS: error= 1.73D-03 at cycle   4 NSaved=   4.
 NSaved= 4 IEnMin= 4 EnMin= -228.635524888301     IErMin= 4 ErrMin= 1.73D-03
 ErrMax= 1.73D-03 EMaxC= 1.00D-01 BMatC= 1.56D-04 BMatP= 1.38D-03
 IDIUse=3 WtCom= 9.83D-01 WtEn= 1.73D-02
 Coeff-Com: -0.922D-01 0.201D+00 0.347D+00 0.544D+00
 Coeff-En:   0.000D+00 0.000D+00 0.000D+00 0.100D+01
 Coeff:     -0.906D-01 0.197D+00 0.341D+00 0.552D+00
 Gap=     0.384 Goal=   None    Shift=    0.000
 RMSDP=1.00D-04 MaxDP=2.34D-03 DE=-9.68D-04 OVMax= 1.97D-03

 Cycle   5  Pass 1  IDiag  1:
 RMSU=  5.36D-05    CP:  8.69D-01  2.31D+00  9.83D-01  1.04D+00
 FoFJK:  IHMeth= 1 ICntrl=     0 DoSepK=T KAlg= 1 I1Cent= 0 FoldK=F
 E= -228.635630408650     Delta-E=       -0.000105520349 Rises=F Damp=F
 DIIS: error= 2.61D-04 at cycle   5 NSaved=   5.
 NSaved= 5 IEnMin= 5 EnMin= -228.635630408650     IErMin= 5 ErrMin= 2.61D-04
 ErrMax= 2.61D-04 EMaxC= 1.00D-01 BMatC= 5.99D-06 BMatP= 1.56D-04
 IDIUse=3 WtCom= 9.97D-01 WtEn= 2.61D-03
 Coeff-Com:  0.311D-01-0.679D-01-0.895D-01 0.680D-01 0.106D+01
 Coeff-En:   0.000D+00 0.000D+00 0.000D+00 0.000D+00 0.100D+01
 Coeff:      0.311D-01-0.677D-01-0.893D-01 0.678D-01 0.106D+01
 Gap=     0.384 Goal=   None    Shift=    0.000
 RMSDP=1.16D-04 MaxDP=1.99D-03 DE=-1.06D-04 OVMax= 1.56D-03

 Cycle   6  Pass 1  IDiag  1:
 RMSU=  1.34D-05    CP:  8.67D-01  2.34D+00  1.02D+00  1.27D+00  1.27D+00
 FoFJK:  IHMeth= 1 ICntrl=     0 DoSepK=T KAlg= 1 I1Cent= 0 FoldK=F
 E= -228.635640464297     Delta-E=       -0.000010055647 Rises=F Damp=F
 DIIS: error= 7.26D-05 at cycle   6 NSaved=   6.
 NSaved= 6 IEnMin= 6 EnMin= -228.635640464297     IErMin= 6 ErrMin= 7.26D-05
 ErrMax= 7.26D-05 EMaxC= 1.00D-01 BMatC= 4.75D-07 BMatP= 5.99D-06
 IDIUse=1 WtCom= 1.00D+00 WtEn= 0.00D+00
 Coeff-Com:  0.126D-01-0.274D-01-0.395D-01 0.160D-02 0.328D+00 0.725D+00
 Coeff:      0.126D-01-0.274D-01-0.395D-01 0.160D-02 0.328D+00 0.725D+00
 Gap=     0.384 Goal=   None    Shift=    0.000
 RMSDP=1.19D-05 MaxDP=1.72D-04 DE=-1.01D-05 OVMax= 3.00D-04

 Cycle   7  Pass 1  IDiag  1:
 RMSU=  4.68D-06    CP:  8.67D-01  2.34D+00  1.02D+00  1.29D+00  1.33D+00
                    CP:  1.22D+00
 FoFJK:  IHMeth= 1 ICntrl=     0 DoSepK=T KAlg= 1 I1Cent= 0 FoldK=F
 E= -228.635640890813     Delta-E=       -0.000000426515 Rises=F Damp=F
 DIIS: error= 5.01D-05 at cycle   7 NSaved=   7.
 NSaved= 7 IEnMin= 7 EnMin= -228.635640890813     IErMin= 7 ErrMin= 5.01D-05
 ErrMax= 5.01D-05 EMaxC= 1.00D-01 BMatC= 2.08D-07 BMatP= 4.75D-07
 IDIUse=1 WtCom= 1.00D+00 WtEn= 0.00D+00
 Coeff-Com: -0.728D-03 0.163D-02-0.168D-03-0.174D-01-0.805D-01 0.413D+00
 Coeff-Com:  0.684D+00
 Coeff:     -0.728D-03 0.163D-02-0.168D-03-0.174D-01-0.805D-01 0.413D+00
 Coeff:      0.684D+00
 Gap=     0.384 Goal=   None    Shift=    0.000
 RMSDP=6.21D-06 MaxDP=9.78D-05 DE=-4.27D-07 OVMax= 1.72D-04

 Cycle   8  Pass 1  IDiag  1:
 RMSU=  1.80D-06    CP:  8.67D-01  2.34D+00  1.02D+00  1.30D+00  1.36D+00
                    CP:  1.45D+00  1.01D+00
 FoFJK:  IHMeth= 1 ICntrl=     0 DoSepK=T KAlg= 1 I1Cent= 0 FoldK=F
 E= -228.635641076365     Delta-E=       -0.000000185552 Rises=F Damp=F
 DIIS: error= 6.51D-06 at cycle   8 NSaved=   8.
 NSaved= 8 IEnMin= 8 EnMin= -228.635641076365     IErMin= 8 ErrMin= 6.51D-06
 ErrMax= 6.51D-06 EMaxC= 1.00D-01 BMatC= 4.95D-09 BMatP= 2.08D-07
 IDIUse=1 WtCom= 1.00D+00 WtEn= 0.00D+00
 Coeff-Com: -0.110D-02 0.237D-02 0.269D-02-0.493D-02-0.424D-01 0.429D-01
 Coeff-Com:  0.161D+00 0.840D+00
 Coeff:     -0.110D-02 0.237D-02 0.269D-02-0.493D-02-0.424D-01 0.429D-01
 Coeff:      0.161D+00 0.840D+00
 Gap=     0.384 Goal=   None    Shift=    0.000
 RMSDP=2.26D-06 MaxDP=4.39D-05 DE=-1.86D-07 OVMax= 4.40D-05

 Cycle   9  Pass 1  IDiag  1:
 RMSU=  5.19D-07    CP:  8.67D-01  2.34D+00  1.02D+00  1.30D+00  1.37D+00
                    CP:  1.52D+00  1.13D+00  1.24D+00
 FoFJK:  IHMeth= 1 ICntrl=     0 DoSepK=T KAlg= 1 I1Cent= 0 FoldK=F
 E= -228.635641083997     Delta-E=       -0.000000007632 Rises=F Damp=F
 DIIS: error= 2.83D-06 at cycle   9 NSaved=   9.
 NSaved= 9 IEnMin= 9 EnMin= -228.635641083997     IErMin= 9 ErrMin= 2.83D-06
 ErrMax= 2.83D-06 EMaxC= 1.00D-01 BMatC= 5.27D-10 BMatP= 4.95D-09
 IDIUse=1 WtCom= 1.00D+00 WtEn= 0.00D+00
 Coeff-Com: -0.160D-03 0.341D-03 0.549D-03 0.106D-02 0.155D-02-0.418D-01
 Coeff-Com: -0.465D-01 0.201D+00 0.884D+00
 Coeff:     -0.160D-03 0.341D-03 0.549D-03 0.106D-02 0.155D-02-0.418D-01
 Coeff:     -0.465D-01 0.201D+00 0.884D+00
 Gap=     0.384 Goal=   None    Shift=    0.000
 RMSDP=1.24D-06 MaxDP=2.66D-05 DE=-7.63D-09 OVMax= 1.90D-05

 Cycle  10  Pass 1  IDiag  1:
 RMSU=  1.65D-07    CP:  8.67D-01  2.34D+00  1.02D+00  1.30D+00  1.37D+00
                    CP:  1.55D+00  1.19D+00  1.43D+00  1.23D+00
 FoFJK:  IHMeth= 1 ICntrl=     0 DoSepK=T KAlg= 1 I1Cent= 0 FoldK=F
 E= -228.635641084927     Delta-E=       -0.000000000929 Rises=F Damp=F
 DIIS: error= 4.38D-07 at cycle  10 NSaved=  10.
 NSaved=10 IEnMin=10 EnMin= -228.635641084927     IErMin=10 ErrMin= 4.38D-07
 ErrMax= 4.38D-07 EMaxC= 1.00D-01 BMatC= 1.17D-11 BMatP= 5.27D-10
 IDIUse=1 WtCom= 1.00D+00 WtEn= 0.00D+00
 Coeff-Com:  0.594D-04-0.128D-03-0.161D-03 0.219D-03 0.211D-02-0.133D-02
 Coeff-Com: -0.707D-02-0.532D-01-0.345D-01 0.109D+01
 Coeff:      0.594D-04-0.128D-03-0.161D-03 0.219D-03 0.211D-02-0.133D-02
 Coeff:     -0.707D-02-0.532D-01-0.345D-01 0.109D+01
 Gap=     0.384 Goal=   None    Shift=    0.000
 RMSDP=3.34D-07 MaxDP=6.94D-06 DE=-9.29D-10 OVMax= 5.81D-06

 Cycle  11  Pass 1  IDiag  1:
 RMSU=  2.86D-08    CP:  8.67D-01  2.34D+00  1.02D+00  1.30D+00  1.37D+00
                    CP:  1.55D+00  1.20D+00  1.49D+00  1.36D+00  1.37D+00
 FoFJK:  IHMeth= 1 ICntrl=     0 DoSepK=T KAlg= 1 I1Cent= 0 FoldK=F
 E= -228.635641084975     Delta-E=       -0.000000000048 Rises=F Damp=F
 DIIS: error= 7.39D-08 at cycle  11 NSaved=  11.
 NSaved=11 IEnMin=11 EnMin= -228.635641084975     IErMin=11 ErrMin= 7.39D-08
 ErrMax= 7.39D-08 EMaxC= 1.00D-01 BMatC= 5.75D-13 BMatP= 1.17D-11
 IDIUse=1 WtCom= 1.00D+00 WtEn= 0.00D+00
 Coeff-Com:  0.109D-05-0.210D-05-0.121D-04-0.617D-04-0.252D-03 0.220D-02
 Coeff-Com:  0.289D-02-0.793D-02-0.319D-01-0.824D-01 0.112D+01
 Coeff:      0.109D-05-0.210D-05-0.121D-04-0.617D-04-0.252D-03 0.220D-02
 Coeff:      0.289D-02-0.793D-02-0.319D-01-0.824D-01 0.112D+01
 Gap=     0.384 Goal=   None    Shift=    0.000
 RMSDP=5.29D-08 MaxDP=9.96D-07 DE=-4.82D-11 OVMax= 1.44D-06

 Cycle  12  Pass 1  IDiag  1:
 RMSU=  7.74D-09    CP:  8.67D-01  2.34D+00  1.02D+00  1.30D+00  1.37D+00
                    CP:  1.55D+00  1.20D+00  1.49D+00  1.39D+00  1.46D+00
                    CP:  1.52D+00
 FoFJK:  IHMeth= 1 ICntrl=     0 DoSepK=T KAlg= 1 I1Cent= 0 FoldK=F
 E= -228.635641084978     Delta-E=       -0.000000000003 Rises=F Damp=F
 DIIS: error= 1.41D-08 at cycle  12 NSaved=  12.
 NSaved=12 IEnMin=12 EnMin= -228.635641084978     IErMin=12 ErrMin= 1.41D-08
 ErrMax= 1.41D-08 EMaxC= 1.00D-01 BMatC= 2.78D-14 BMatP= 5.75D-13
 IDIUse=1 WtCom= 1.00D+00 WtEn= 0.00D+00
 Coeff-Com: -0.270D-05 0.579D-05 0.848D-05 0.157D-07-0.631D-04-0.261D-03
 Coeff-Com: -0.554D-04 0.332D-02 0.568D-02-0.390D-01-0.164D+00 0.119D+01
 Coeff:     -0.270D-05 0.579D-05 0.848D-05 0.157D-07-0.631D-04-0.261D-03
 Coeff:     -0.554D-04 0.332D-02 0.568D-02-0.390D-01-0.164D+00 0.119D+01
 Gap=     0.384 Goal=   None    Shift=    0.000
 RMSDP=1.10D-08 MaxDP=1.94D-07 DE=-3.24D-12 OVMax= 3.64D-07

 Cycle  13  Pass 1  IDiag  1:
 RMSU=  1.52D-09    CP:  8.67D-01  2.34D+00  1.02D+00  1.30D+00  1.37D+00
                    CP:  1.55D+00  1.20D+00  1.49D+00  1.39D+00  1.46D+00
                    CP:  1.71D+00  1.50D+00
 FoFJK:  IHMeth= 1 ICntrl=     0 DoSepK=T KAlg= 1 I1Cent= 0 FoldK=F
 E= -228.635641084977     Delta-E=        0.000000000001 Rises=F Damp=F
 DIIS: error= 2.64D-09 at cycle  13 NSaved=  13.
 NSaved=13 IEnMin=12 EnMin= -228.635641084978     IErMin=13 ErrMin= 2.64D-09
 ErrMax= 2.64D-09 EMaxC= 1.00D-01 BMatC= 1.13D-15 BMatP= 2.78D-14
 IDIUse=1 WtCom= 1.00D+00 WtEn= 0.00D+00
 Coeff-Com:  0.185D-06-0.400D-06 0.477D-07 0.222D-05 0.147D-04-0.740D-04
 Coeff-Com: -0.102D-03 0.170D-03 0.721D-03 0.661D-02-0.292D-01-0.104D+00
 Coeff-Com:  0.113D+01
 Coeff:      0.185D-06-0.400D-06 0.477D-07 0.222D-05 0.147D-04-0.740D-04
 Coeff:     -0.102D-03 0.170D-03 0.721D-03 0.661D-02-0.292D-01-0.104D+00
 Coeff:      0.113D+01
 Gap=     0.384 Goal=   None    Shift=    0.000
 RMSDP=2.46D-09 MaxDP=2.85D-08 DE= 6.82D-13 OVMax= 4.83D-08

 Error on total polarization charges =  0.05759
 SCF Done:  E(RwB97XD) =  -228.635641085     A.U. after   13 cycles
             Convg  =    0.2457D-08             -V/T =  2.0039
 KE= 2.277542264448D+02 PE=-7.695310754080D+02 EE= 2.011972671165D+02
 SMD-CDS (non-electrostatic) energy       (kcal/mol) =       3.82
 (included in total energy above)
 Leave Link  502 at Fri Aug 10 08:52:59 2018, MaxMem=  229376000 cpu:     124.4
 (Enter //home/renato/Gaussian09/g09/l601.exe)
 Copying SCF densities to generalized density rwf, IOpCl= 0 IROHF=0.

 **********************************************************************

            Population analysis using the SCF density.

 **********************************************************************

 Orbital symmetries:
       Occupied  (A) (A) (A) (A) (A) (A) (A) (A) (A) (A) (A) (A)
                 (A) (A) (A) (A)
       Virtual   (A) (A) (A) (A) (A) (A) (A) (A) (A) (A) (A) (A)
                 (A) (A) (A) (A) (A) (A) (A) (A) (A) (A) (A) (A)
                 (A) (A) (A) (A) (A) (A) (A) (A) (A) (A) (A) (A)
                 (A) (A) (A) (A) (A) (A) (A) (A) (A) (A) (A) (A)
                 (A) (A) (A) (A) (A) (A) (A) (A) (A) (A) (A) (A)
                 (A) (A) (A) (A) (A) (A) (A) (A) (A) (A) (A) (A)
                 (A) (A) (A) (A) (A) (A) (A) (A) (A) (A) (A) (A)
                 (A) (A) (A) (A) (A) (A) (A) (A) (A)
 The electronic state is 1-A.
 Alpha  occ. eigenvalues --  -19.19566 -19.19337 -10.37870 -10.26710  -1.13696
 Alpha  occ. eigenvalues --   -1.04309  -0.80822  -0.59542  -0.52309  -0.52173
 Alpha  occ. eigenvalues --   -0.52125  -0.46281  -0.43929  -0.35006  -0.33917
 Alpha  occ. eigenvalues --   -0.32923
 Alpha virt. eigenvalues --    0.05518   0.08443   0.08864   0.09851   0.12185
 Alpha virt. eigenvalues --    0.13250   0.14269   0.14378   0.16619   0.17118
 Alpha virt. eigenvalues --    0.18548   0.19723   0.25682   0.26932   0.27191
 Alpha virt. eigenvalues --    0.29893   0.30441   0.32000   0.33342   0.34943
 Alpha virt. eigenvalues --    0.35445   0.37657   0.39077   0.41033   0.52740
 Alpha virt. eigenvalues --    0.53369   0.53427   0.58372   0.64336   0.66139
 Alpha virt. eigenvalues --    0.73689   0.74674   0.77788   0.79681   0.81993
 Alpha virt. eigenvalues --    0.92176   0.95366   1.09949   1.15668   1.18589
 Alpha virt. eigenvalues --    1.23499   1.24439   1.25510   1.28911   1.36850
 Alpha virt. eigenvalues --    1.44651   1.53994   1.54542   1.60468   1.64540
 Alpha virt. eigenvalues --    1.66189   1.68178   1.70916   1.83004   1.94580
 Alpha virt. eigenvalues --    1.95817   1.96335   2.09809   2.20229   2.30433
 Alpha virt. eigenvalues --    2.40888   2.54296   2.60621   2.62648   2.64572
 Alpha virt. eigenvalues --    2.69186   2.78368   2.94049   2.94532   2.96006
 Alpha virt. eigenvalues --    3.02348   3.02618   3.18469   3.32641   3.39488
 Alpha virt. eigenvalues --    3.40286   3.44988   3.66906   3.75951   3.88017
 Alpha virt. eigenvalues --    3.93128   4.16631   4.28858   5.13915   5.18438
 Alpha virt. eigenvalues --    5.21493   5.30640   5.65965   5.97675  23.95011
 Alpha virt. eigenvalues --   24.07067  50.06451  50.15937
     Molecular Orbital Coefficients:
                           1         2         3         4         5
                           O         O         O         O         O
     Eigenvalues --   -19.19566 -19.19337 -10.37870 -10.26710  -1.13696
   1 1   C  1S         -0.00001  -0.00001   0.56371  -0.00060  -0.07557
   2        2S          0.00005   0.00004   0.46318  -0.00051  -0.11651
   3        2PX        -0.00019  -0.00016  -0.00032   0.00050  -0.04593
   4        2PY        -0.00033   0.00033   0.00001  -0.00001   0.00018
   5        2PZ         0.00000   0.00000   0.00000   0.00000  -0.00018
   6        3S          0.00031   0.00038   0.01593   0.00033   0.30929
   7        3PX         0.00045   0.00036  -0.00063  -0.00112  -0.06449
   8        3PY         0.00075  -0.00072   0.00001   0.00002   0.00056
   9        3PZ         0.00000   0.00000  -0.00001   0.00000  -0.00022
  10        4S          0.00195   0.00129  -0.00986  -0.00038   0.08945
  11        4PX        -0.00188  -0.00164  -0.00151   0.00294   0.01047
  12        4PY        -0.00430   0.00401   0.00038   0.00021   0.00102
  13        4PZ         0.00000   0.00000   0.00001   0.00000   0.00001
  14        5S         -0.00585  -0.00783  -0.00450   0.00415   0.03530
  15        5PX        -0.00097  -0.00175  -0.00139   0.00119   0.00255
  16        5PY         0.00166  -0.00143   0.00027  -0.00052  -0.00096
  17        5PZ         0.00001   0.00001   0.00000  -0.00001  -0.00007
  18        6D 0        0.00008   0.00008  -0.00140   0.00019  -0.01852
  19        6D+1        0.00000   0.00000   0.00000   0.00000   0.00005
  20        6D-1        0.00000   0.00000   0.00000   0.00000   0.00000
  21        6D+2        0.00040   0.00052  -0.00072  -0.00071  -0.01860
  22        6D-2       -0.00068   0.00057   0.00011   0.00003   0.00229
  23 2   C  1S         -0.00001   0.00000   0.00057   0.56355  -0.01193
  24        2S          0.00003   0.00002   0.00046   0.46298  -0.01851
  25        2PX        -0.00009  -0.00009  -0.00047  -0.00015  -0.01190
  26        2PY        -0.00004   0.00005  -0.00001   0.00007   0.00040
  27        2PZ         0.00000   0.00000   0.00000   0.00000   0.00001
  28        3S         -0.00011  -0.00016   0.00032   0.01748   0.04789
  29        3PX         0.00049   0.00056   0.00123   0.00119  -0.02582
  30        3PY         0.00012  -0.00018   0.00009  -0.00004   0.00137
  31        3PZ         0.00000   0.00000   0.00000   0.00001   0.00002
  32        4S          0.00051   0.00151   0.00225  -0.01019   0.00518
  33        4PX        -0.00029  -0.00041  -0.00081   0.00143   0.00278
  34        4PY         0.00130  -0.00106  -0.00041  -0.00031   0.00030
  35        4PZ         0.00000   0.00001   0.00000  -0.00001  -0.00004
  36        5S          0.00178   0.00393  -0.00036  -0.01359   0.00423
  37        5PX        -0.00106  -0.00145  -0.00025   0.00077   0.00399
  38        5PY        -0.00169   0.00005  -0.00084  -0.00043   0.00847
  39        5PZ        -0.00001  -0.00001   0.00000  -0.00001   0.00009
  40        6D 0        0.00005   0.00005   0.00052   0.00024  -0.00246
  41        6D+1        0.00000   0.00000   0.00000   0.00000  -0.00001
  42        6D-1        0.00000   0.00000   0.00000   0.00000   0.00000
  43        6D+2       -0.00024  -0.00029  -0.00073  -0.00056   0.00623
  44        6D-2       -0.00019   0.00018   0.00009  -0.00003  -0.00004
  45 3   H  1S         -0.00007   0.00000  -0.00003   0.00027   0.00480
  46        2S          0.00018  -0.00062  -0.00063  -0.00297   0.00872
  47        3S          0.00024  -0.00012  -0.00020   0.00411  -0.00307
  48        4S         -0.00083  -0.00040  -0.00016   0.00058   0.00669
  49        5PX         0.00009   0.00001   0.00004   0.00053  -0.00163
  50        5PY        -0.00006  -0.00015  -0.00021  -0.00176   0.00236
  51        5PZ         0.00000   0.00000   0.00000  -0.00001   0.00001
  52 4   H  1S          0.00002   0.00006  -0.00007   0.00027   0.00440
  53        2S         -0.00033  -0.00038  -0.00067  -0.00274   0.00819
  54        3S          0.00045   0.00035   0.00090   0.00457  -0.00724
  55        4S          0.00105   0.00078   0.00079   0.00136  -0.00839
  56        5PX        -0.00004   0.00011   0.00000   0.00049  -0.00112
  57        5PY        -0.00006   0.00008   0.00016   0.00086  -0.00061
  58        5PZ         0.00011   0.00009   0.00024   0.00145  -0.00173
  59 5   H  1S          0.00002   0.00006  -0.00007   0.00027   0.00439
  60        2S         -0.00033  -0.00037  -0.00067  -0.00272   0.00814
  61        3S          0.00045   0.00035   0.00089   0.00455  -0.00720
  62        4S          0.00104   0.00076   0.00080   0.00134  -0.00828
  63        5PX        -0.00004   0.00011   0.00000   0.00049  -0.00112
  64        5PY        -0.00006   0.00008   0.00016   0.00087  -0.00061
  65        5PZ        -0.00011  -0.00009  -0.00023  -0.00143   0.00172
  66 6   O  1S          0.55165   0.00280  -0.00007   0.00001  -0.07261
  67        2S          0.46959   0.00242  -0.00007   0.00003  -0.11631
  68        2PX         0.00051   0.00003   0.00022   0.00003   0.02275
  69        2PY         0.00091   0.00006   0.00035   0.00004   0.04494
  70        2PZ         0.00000   0.00000   0.00000   0.00000   0.00007
  71        3S          0.01283  -0.00017   0.00054  -0.00018   0.33187
  72        3PX         0.00028  -0.00013  -0.00056  -0.00019   0.03372
  73        3PY         0.00042  -0.00025  -0.00082  -0.00022   0.06797
  74        3PZ         0.00000   0.00000   0.00000   0.00000   0.00011
  75        4S         -0.00938   0.00054  -0.00289   0.00021   0.23226
  76        4PX        -0.00087   0.00069  -0.00063  -0.00004   0.00959
  77        4PY        -0.00125  -0.00021  -0.00127   0.00040   0.02412
  78        4PZ         0.00000   0.00000   0.00000   0.00000   0.00003
  79        5S          0.00275   0.00143   0.00471   0.00242  -0.01657
  80        5PX        -0.00001   0.00051   0.00188   0.00059  -0.00330
  81        5PY        -0.00043   0.00038   0.00164   0.00102  -0.00215
  82        5PZ         0.00000   0.00000   0.00000   0.00001   0.00001
  83        6D 0       -0.00012   0.00002   0.00044   0.00001  -0.00444
  84        6D+1        0.00000   0.00000   0.00000   0.00000   0.00001
  85        6D-1        0.00000   0.00000   0.00000   0.00000   0.00002
  86        6D+2       -0.00011   0.00018   0.00026   0.00000  -0.00620
  87        6D-2        0.00019   0.00000  -0.00058  -0.00010   0.00749
  88 7   O  1S         -0.00280   0.55166  -0.00007   0.00000  -0.07017
  89        2S         -0.00234   0.46959  -0.00008   0.00002  -0.11241
  90        2PX         0.00002   0.00042   0.00019   0.00002   0.01783
  91        2PY        -0.00006  -0.00096  -0.00036  -0.00006  -0.04541
  92        2PZ         0.00000   0.00000   0.00000   0.00000   0.00007
  93        3S         -0.00029   0.01282   0.00059  -0.00014   0.32071
  94        3PX        -0.00011   0.00024  -0.00045  -0.00013   0.02634
  95        3PY         0.00028  -0.00041   0.00083   0.00030  -0.06886
  96        3PZ         0.00000   0.00000   0.00000   0.00000   0.00010
  97        4S          0.00065  -0.00928  -0.00309  -0.00007   0.22393
  98        4PX         0.00071  -0.00076  -0.00062  -0.00020   0.00692
  99        4PY         0.00013   0.00125   0.00138  -0.00051  -0.02395
 100        4PZ         0.00000   0.00000   0.00000   0.00000   0.00002
 101        5S          0.00168   0.00352   0.00431   0.00213  -0.02015
 102        5PX         0.00054   0.00035   0.00181   0.00062  -0.00486
 103        5PY        -0.00047   0.00028  -0.00163  -0.00014   0.00278
 104        5PZ         0.00000   0.00000   0.00000   0.00000   0.00001
 105        6D 0        0.00003  -0.00011   0.00044   0.00001  -0.00436
 106        6D+1        0.00000   0.00000   0.00000   0.00000   0.00001
 107        6D-1        0.00000   0.00000   0.00000   0.00000  -0.00002
 108        6D+2        0.00018  -0.00014   0.00035   0.00003  -0.00727
 109        6D-2       -0.00002  -0.00016   0.00053   0.00010  -0.00593
                           6         7         8         9        10
                           O         O         O         O         O
     Eigenvalues --    -1.04309  -0.80822  -0.59542  -0.52309  -0.52173
   1 1   C  1S         -0.00103  -0.02874  -0.07543   0.00535   0.00043
   2        2S         -0.00162  -0.04548  -0.12034   0.00860   0.00069
   3        2PX         0.00558   0.08630   0.02471   0.16296   0.01619
   4        2PY         0.12179  -0.00373  -0.00173   0.01256  -0.13922
   5        2PZ         0.00000   0.00002  -0.00002   0.00103  -0.00786
   6        3S          0.00421   0.12454   0.35489  -0.03458  -0.00228
   7        3PX         0.00753   0.13199   0.03027   0.24406   0.02482
   8        3PY         0.16849  -0.00556  -0.00210   0.01870  -0.20960
   9        3PZ         0.00001   0.00003  -0.00001   0.00166  -0.01268
  10        4S          0.00386   0.09962   0.29415  -0.00341  -0.01256
  11        4PX        -0.00011   0.03960   0.03210   0.12830   0.01187
  12        4PY         0.00035  -0.00127   0.00216   0.00649  -0.09902
  13        4PZ         0.00000   0.00000   0.00002   0.00088  -0.00726
  14        5S          0.00581  -0.05529   0.12336   0.06692  -0.01769
  15        5PX         0.00309  -0.00633   0.03770   0.03693  -0.00442
  16        5PY         0.01873   0.00120  -0.00101  -0.00448   0.00030
  17        5PZ         0.00000   0.00005  -0.00002   0.00010  -0.00130
  18        6D 0       -0.00034  -0.00299  -0.00690   0.00356   0.00027
  19        6D+1       -0.00001  -0.00003   0.00000  -0.00009   0.00024
  20        6D-1       -0.00010   0.00000   0.00000   0.00001  -0.00003
  21        6D+2       -0.00309   0.01189  -0.00636  -0.01361  -0.00252
  22        6D-2       -0.03063  -0.00029   0.00082   0.00099  -0.00113
  23 2   C  1S         -0.00073  -0.10202   0.02620   0.01139   0.00064
  24        2S         -0.00112  -0.15906   0.04112   0.01793   0.00098
  25        2PX        -0.00038  -0.01317  -0.10070  -0.11425  -0.01588
  26        2PY         0.00693   0.00207   0.00317   0.01547  -0.10374
  27        2PZ         0.00000   0.00018   0.00012   0.00119  -0.00762
  28        3S          0.00282   0.41299  -0.10319  -0.04368  -0.00212
  29        3PX        -0.00079  -0.02792  -0.15424  -0.17475  -0.02526
  30        3PY         0.01152   0.00307   0.00458   0.02217  -0.15250
  31        3PZ         0.00001   0.00021   0.00019   0.00180  -0.01148
  32        4S          0.00079   0.26425  -0.13666  -0.08732  -0.00357
  33        4PX         0.00009   0.00102  -0.06913  -0.09559  -0.01512
  34        4PY         0.01038   0.00162   0.00014   0.01989  -0.10410
  35        4PZ        -0.00001   0.00010   0.00008   0.00123  -0.00772
  36        5S         -0.00023   0.09956  -0.11700  -0.10073  -0.00039
  37        5PX         0.00084  -0.01394   0.02589   0.01534  -0.00269
  38        5PY        -0.00700   0.00530  -0.00005   0.01062  -0.00694
  39        5PZ         0.00002   0.00003  -0.00010  -0.00016   0.00122
  40        6D 0        0.00014  -0.00177  -0.00764  -0.00803  -0.00859
  41        6D+1        0.00000  -0.00003  -0.00003  -0.00006   0.00020
  42        6D-1        0.00001   0.00001   0.00001   0.00011  -0.00067
  43        6D+2        0.00016   0.00406   0.01620   0.01451  -0.00177
  44        6D-2       -0.00467  -0.00028  -0.00065  -0.00110   0.00040
  45 3   H  1S         -0.00302   0.07259  -0.05406  -0.05372   0.07270
  46        2S         -0.00078   0.08921  -0.07096  -0.07140   0.10041
  47        3S          0.00052  -0.01181  -0.01022  -0.00806   0.02813
  48        4S         -0.00119   0.00017   0.00001   0.01107   0.00764
  49        5PX         0.00054  -0.00555  -0.00243  -0.00498  -0.00564
  50        5PY        -0.00026   0.01431  -0.00710  -0.00714   0.00551
  51        5PZ         0.00000   0.00005  -0.00002   0.00005  -0.00041
  52 4   H  1S          0.00200   0.07363  -0.05048  -0.03742  -0.04990
  53        2S          0.00179   0.09238  -0.06501  -0.05162  -0.06981
  54        3S         -0.00145  -0.01713  -0.00895  -0.01421  -0.01746
  55        4S         -0.00075  -0.00620  -0.00110  -0.00036  -0.00201
  56        5PX        -0.00055  -0.00596  -0.00287  -0.00528   0.00237
  57        5PY        -0.00010  -0.00727   0.00378   0.00351  -0.00203
  58        5PZ        -0.00035  -0.01234   0.00618   0.00416   0.00606
  59 5   H  1S          0.00201   0.07339  -0.05065  -0.03896  -0.04026
  60        2S          0.00179   0.09214  -0.06529  -0.05378  -0.05636
  61        3S         -0.00147  -0.01705  -0.00897  -0.01471  -0.01361
  62        4S         -0.00068  -0.00619  -0.00127  -0.00087   0.00115
  63        5PX        -0.00056  -0.00595  -0.00284  -0.00517   0.00174
  64        5PY        -0.00010  -0.00734   0.00384   0.00366  -0.00270
  65        5PZ         0.00036   0.01225  -0.00617  -0.00421  -0.00568
  66 6   O  1S          0.08178   0.02083   0.04099  -0.02301   0.02673
  67        2S          0.13132   0.03375   0.06673  -0.03727   0.04347
  68        2PX        -0.02655   0.01887   0.06682   0.02383   0.11562
  69        2PY        -0.03318  -0.00522   0.08969  -0.14328   0.07621
  70        2PZ        -0.00009  -0.00001   0.00019   0.00055  -0.00592
  71        3S         -0.37604  -0.09978  -0.19739   0.10775  -0.12871
  72        3PX        -0.03968   0.02747   0.09477   0.03582   0.16685
  73        3PY        -0.04821  -0.00867   0.12606  -0.20811   0.10723
  74        3PZ        -0.00014  -0.00001   0.00027   0.00082  -0.00880
  75        4S         -0.28675  -0.09072  -0.24483   0.16306  -0.18516
  76        4PX        -0.01744   0.01758   0.06334   0.03925   0.12728
  77        4PY        -0.01559  -0.00328   0.08329  -0.14864   0.07044
  78        4PZ        -0.00006   0.00000   0.00019   0.00073  -0.00736
  79        5S          0.00010  -0.01562  -0.07845   0.06637  -0.08183
  80        5PX        -0.00088  -0.00805  -0.00425   0.00146   0.01294
  81        5PY        -0.00386  -0.00505   0.00324  -0.01794  -0.00196
  82        5PZ         0.00000  -0.00002   0.00000   0.00005  -0.00031
  83        6D 0        0.00379  -0.00026  -0.00445   0.00526  -0.00603
  84        6D+1       -0.00002   0.00000   0.00002   0.00005  -0.00037
  85        6D-1       -0.00003  -0.00001   0.00002   0.00004  -0.00064
  86        6D+2        0.00161   0.00391  -0.00233   0.01317   0.00193
  87        6D-2       -0.00865   0.00174   0.00753  -0.00221   0.01082
  88 7   O  1S         -0.08361   0.02220   0.04065  -0.01474  -0.03166
  89        2S         -0.13424   0.03597   0.06615  -0.02384  -0.05142
  90        2PX         0.02383   0.01966   0.05703   0.06349  -0.09047
  91        2PY        -0.03649   0.00344  -0.09357   0.10881   0.12015
  92        2PZ         0.00009  -0.00001   0.00018   0.00066  -0.00652
  93        3S          0.38426  -0.10619  -0.19523   0.06818   0.15098
  94        3PX         0.03571   0.02850   0.08115   0.09330  -0.13061
  95        3PY        -0.05330   0.00596  -0.13173   0.15897   0.17147
  96        3PZ         0.00013  -0.00001   0.00025   0.00097  -0.00964
  97        4S          0.29310  -0.09752  -0.24500   0.10546   0.22287
  98        4PX         0.01646   0.01837   0.05307   0.08126  -0.09524
  99        4PY        -0.01744   0.00205  -0.08604   0.11420   0.11429
 100        4PZ         0.00006   0.00000   0.00017   0.00085  -0.00803
 101        5S         -0.00393  -0.01512  -0.08345   0.03918   0.11084
 102        5PX        -0.00146  -0.00824  -0.00492   0.00401  -0.00543
 103        5PY        -0.00308   0.00180  -0.00103   0.01731   0.00285
 104        5PZ        -0.00001  -0.00002   0.00000   0.00008  -0.00044
 105        6D 0       -0.00393  -0.00029  -0.00436   0.00331   0.00699
 106        6D+1        0.00002   0.00000   0.00001   0.00005  -0.00037
 107        6D-1       -0.00003   0.00001  -0.00002  -0.00006   0.00074
 108        6D+2       -0.00326   0.00351  -0.00360   0.01263   0.00377
 109        6D-2       -0.00828  -0.00243  -0.00682  -0.00318   0.01024
                          11        12        13        14        15
                           O         O         O         O         O
     Eigenvalues --    -0.52125  -0.46281  -0.43929  -0.35006  -0.33917
   1 1   C  1S         -0.00004   0.00099   0.00009   0.00000   0.00603
   2        2S         -0.00007   0.00163   0.00014   0.00000   0.00986
   3        2PX        -0.00041  -0.00256  -0.00005  -0.00004  -0.07524
   4        2PY        -0.00831  -0.09020   0.00005  -0.00003   0.00332
   5        2PZ         0.13446  -0.00016  -0.09024   0.00129  -0.00018
   6        3S          0.00022  -0.00629  -0.00042  -0.00001  -0.02409
   7        3PX        -0.00059  -0.00451  -0.00007  -0.00006  -0.11981
   8        3PY        -0.01251  -0.13552   0.00007  -0.00004   0.00505
   9        3PZ         0.21684  -0.00025  -0.14214   0.00184  -0.00027
  10        4S         -0.00037   0.01462  -0.00017  -0.00006  -0.07779
  11        4PX        -0.00033   0.00022   0.00006   0.00011  -0.03365
  12        4PY        -0.00568  -0.04118   0.00025   0.00027  -0.01324
  13        4PZ         0.12428  -0.00018  -0.10311   0.00798  -0.00025
  14        5S         -0.00313   0.02086   0.00143  -0.00023   0.02391
  15        5PX        -0.00103   0.00853   0.00046  -0.00003   0.03710
  16        5PY         0.00009  -0.00178   0.00002   0.00008  -0.00886
  17        5PZ         0.02226  -0.00006  -0.02371   0.00922  -0.00010
  18        6D 0       -0.00011   0.00091   0.00008   0.00000  -0.00663
  19        6D+1       -0.00444   0.00004   0.03041   0.00203   0.00005
  20        6D-1        0.00146  -0.00001   0.00219   0.06054  -0.00002
  21        6D+2       -0.00003   0.00388   0.00016  -0.00005  -0.07212
  22        6D-2       -0.00006   0.03533  -0.00005  -0.00012   0.00756
  23 2   C  1S          0.00000   0.00081   0.00001   0.00001   0.02011
  24        2S         -0.00001   0.00133   0.00002   0.00002   0.03224
  25        2PX         0.00010   0.00140   0.00003   0.00007   0.12313
  26        2PY        -0.00611   0.16784  -0.00018   0.00021   0.00233
  27        2PZ         0.12932   0.00012   0.15285  -0.00799   0.00029
  28        3S         -0.00002  -0.00395  -0.00005  -0.00004  -0.09751
  29        3PX         0.00011   0.00326   0.00006   0.00010   0.18015
  30        3PY        -0.00898   0.24573  -0.00030   0.00034   0.00391
  31        3PZ         0.19494   0.00015   0.22534  -0.01346   0.00046
  32        4S          0.00027  -0.00531  -0.00041  -0.00021  -0.13432
  33        4PX         0.00002   0.00413   0.00009   0.00014   0.16335
  34        4PY        -0.00624   0.18679  -0.00035   0.00022   0.02083
  35        4PZ         0.13170   0.00012   0.18311  -0.02809   0.00050
  36        5S          0.00257   0.01467  -0.00129  -0.00007  -0.08304
  37        5PX        -0.00065   0.00275   0.00032  -0.00001   0.02244
  38        5PY        -0.00039   0.00804   0.00005   0.00045   0.01275
  39        5PZ        -0.02018   0.00007   0.00814  -0.02919   0.00012
  40        6D 0       -0.00026   0.01415   0.00016   0.00000  -0.00032
  41        6D+1       -0.00351   0.00001   0.01635  -0.00080   0.00006
  42        6D-1        0.01239  -0.00014   0.01653   0.00151   0.00004
  43        6D+2       -0.00019   0.00760   0.00006   0.00000  -0.00586
  44        6D-2        0.00004   0.01532  -0.00002   0.00003   0.00032
  45 3   H  1S          0.00429  -0.14166  -0.00026  -0.00016   0.02167
  46        2S          0.00590  -0.20576  -0.00042  -0.00024   0.04851
  47        3S          0.00145  -0.07789  -0.00014  -0.00001   0.03496
  48        4S          0.00029  -0.02178   0.00003   0.00042   0.01580
  49        5PX        -0.00026   0.00723   0.00002  -0.00002   0.00413
  50        5PY         0.00033  -0.00975  -0.00005  -0.00001   0.00265
  51        5PZ         0.00762  -0.00005   0.00893  -0.00106   0.00004
  52 4   H  1S          0.08354   0.07149   0.11447  -0.00392   0.02191
  53        2S          0.11671   0.10519   0.16976   0.00113   0.03708
  54        3S          0.03302   0.03152   0.06818   0.01778   0.01582
  55        4S          0.02679   0.00228   0.01987   0.01973   0.00478
  56        5PX        -0.00539  -0.00353  -0.00538  -0.00221   0.00652
  57        5PY        -0.00663   0.00509  -0.00821   0.00050  -0.00086
  58        5PZ        -0.00331  -0.00874  -0.00397  -0.00035  -0.00340
  59 5   H  1S         -0.08772   0.07218  -0.11413   0.00411   0.02154
  60        2S         -0.12262   0.10624  -0.16925  -0.00076   0.03659
  61        3S         -0.03469   0.03198  -0.06791  -0.01764   0.01550
  62        4S         -0.02693   0.00248  -0.01993  -0.02001   0.00480
  63        5PX         0.00570  -0.00358   0.00537   0.00223   0.00646
  64        5PY         0.00636   0.00497   0.00826  -0.00047  -0.00085
  65        5PZ        -0.00385   0.00879  -0.00386  -0.00031   0.00340
  66 6   O  1S          0.00172   0.00859  -0.00001  -0.00001  -0.00406
  67        2S          0.00279   0.01399  -0.00002  -0.00002  -0.00656
  68        2PX         0.00638   0.04545  -0.00018   0.00067   0.18037
  69        2PY         0.00540   0.09436   0.00028   0.00017  -0.02040
  70        2PZ         0.10601   0.00015  -0.12275  -0.20427   0.00013
  71        3S         -0.00826  -0.03909   0.00006   0.00006   0.02192
  72        3PX         0.00919   0.06509  -0.00024   0.00095   0.25739
  73        3PY         0.00764   0.13176   0.00042   0.00023  -0.03389
  74        3PZ         0.15746   0.00020  -0.18083  -0.29781   0.00017
  75        4S         -0.01191  -0.08023   0.00009   0.00019   0.01741
  76        4PX         0.00691   0.04288  -0.00024   0.00099   0.25660
  77        4PY         0.00512   0.09975   0.00036   0.00028  -0.04294
  78        4PZ         0.13075   0.00016  -0.16240  -0.29903   0.00016
  79        5S         -0.00500  -0.04499  -0.00001   0.00032  -0.00353
  80        5PX         0.00078   0.00398  -0.00010   0.00037   0.07912
  81        5PY         0.00004   0.01837   0.00014   0.00006  -0.01984
  82        5PZ         0.00557   0.00005  -0.02308  -0.09151   0.00008
  83        6D 0       -0.00035  -0.00314  -0.00004  -0.00004  -0.00080
  84        6D+1        0.00689   0.00001  -0.00545  -0.00601   0.00001
  85        6D-1        0.01143   0.00001  -0.01029  -0.00869   0.00000
  86        6D+2        0.00002  -0.00225  -0.00002   0.00001   0.00215
  87        6D-2        0.00062   0.00658   0.00001   0.00003   0.00495
  88 7   O  1S         -0.00178  -0.00995  -0.00001   0.00001  -0.00369
  89        2S         -0.00289  -0.01626  -0.00002   0.00002  -0.00592
  90        2PX        -0.00606  -0.04029  -0.00025  -0.00045   0.18561
  91        2PY         0.00649   0.10324  -0.00035   0.00023   0.00627
  92        2PZ         0.10693  -0.00051  -0.11068   0.21230  -0.00008
  93        3S          0.00850   0.04690   0.00009  -0.00005   0.01893
  94        3PX        -0.00876  -0.05733  -0.00034  -0.00065   0.26524
  95        3PY         0.00924   0.14398  -0.00052   0.00033   0.01375
  96        3PZ         0.15809  -0.00073  -0.16388   0.30963  -0.00013
  97        4S          0.01241   0.08260  -0.00008  -0.00013   0.02765
  98        4PX        -0.00657  -0.04231  -0.00041  -0.00069   0.26985
  99        4PY         0.00616   0.11386  -0.00037   0.00033   0.01856
 100        4PZ         0.13281  -0.00063  -0.14532   0.30942  -0.00012
 101        5S          0.00623   0.02631  -0.00043  -0.00008   0.01245
 102        5PX        -0.00039  -0.01128  -0.00018  -0.00024   0.08272
 103        5PY         0.00011   0.02166  -0.00004   0.00007   0.01176
 104        5PZ         0.00761  -0.00011  -0.01625   0.09197   0.00002
 105        6D 0        0.00043   0.00355  -0.00004   0.00004  -0.00088
 106        6D+1        0.00594  -0.00003  -0.00388   0.00533   0.00001
 107        6D-1       -0.01187   0.00005   0.01025  -0.00973   0.00001
 108        6D+2        0.00013   0.00359  -0.00003   0.00000   0.00149
 109        6D-2        0.00066   0.00631  -0.00001   0.00003  -0.00549
                          16        17        18        19        20
                           O         V         V         V         V
     Eigenvalues --    -0.32923   0.05518   0.08443   0.08864   0.09851
   1 1   C  1S         -0.00015   0.00409   0.00009  -0.00082   0.00047
   2        2S         -0.00026   0.00605   0.00015  -0.00139   0.00282
   3        2PX         0.00056  -0.00373   0.00000   0.00107  -0.02618
   4        2PY        -0.01282   0.00013  -0.00002  -0.00673  -0.00020
   5        2PZ         0.00000  -0.00044  -0.08561   0.00003   0.00074
   6        3S          0.00122   0.00032  -0.00050   0.00783  -0.05931
   7        3PX         0.00176   0.00543  -0.00003  -0.00396  -0.00929
   8        3PY        -0.02398   0.00233  -0.00004  -0.00448   0.00180
   9        3PZ        -0.00001  -0.00071  -0.13900   0.00009   0.00110
  10        4S         -0.00778  -0.19247  -0.00122   0.00053   0.65256
  11        4PX        -0.00017  -0.07010  -0.00014   0.03638  -0.39567
  12        4PY         0.04234   0.02455   0.00024   0.04675   0.01746
  13        4PZ         0.00002  -0.00100  -0.23278  -0.00004   0.00170
  14        5S         -0.02544  -1.43158  -0.02675   2.11071  -5.78678
  15        5PX        -0.00470   0.03803  -0.01006   0.90514  -3.86789
  16        5PY         0.02978   0.09092  -0.00358  -0.76729   0.10190
  17        5PZ         0.00004   0.00187   0.43151  -0.00116   0.00550
  18        6D 0       -0.00038  -0.00806  -0.00002  -0.00148   0.00424
  19        6D+1        0.00001  -0.00004  -0.01123   0.00001   0.00006
  20        6D-1        0.00012   0.00000  -0.00123  -0.00002  -0.00001
  21        6D+2        0.00569  -0.00266  -0.00004   0.00617  -0.01367
  22        6D-2        0.04896  -0.00072   0.00004   0.00856   0.00162
  23 2   C  1S         -0.00053  -0.02343  -0.00005  -0.00005   0.00235
  24        2S         -0.00080  -0.03867  -0.00008  -0.00001   0.00398
  25        2PX        -0.00326   0.02266  -0.00013  -0.00484   0.02871
  26        2PY        -0.04389   0.00282   0.00016   0.04346   0.00457
  27        2PZ        -0.00001   0.00000  -0.04207   0.00009  -0.00001
  28        3S          0.00133   0.13322   0.00015  -0.00125  -0.01133
  29        3PX        -0.00435   0.02777  -0.00016  -0.00672   0.04972
  30        3PY        -0.07328   0.00200   0.00030   0.10325   0.01144
  31        3PZ        -0.00004  -0.00011  -0.10470   0.00026  -0.00007
  32        4S          0.01433   0.24420   0.00115  -0.00852   0.07206
  33        4PX        -0.00570  -0.00442  -0.00044  -0.00580   0.00534
  34        4PY        -0.04757   0.02887  -0.00013  -0.09097  -0.00905
  35        4PZ        -0.00002   0.00054   0.06582  -0.00022   0.00089
  36        5S          0.04370   6.72394   0.01024  -2.33286  10.36857
  37        5PX        -0.00625   0.05567  -0.00540   0.53367  -2.32469
  38        5PY        -0.00395   0.24237   0.00588   2.12431   0.19812
  39        5PZ        -0.00001   0.00181  -1.68140   0.00225   0.00373
  40        6D 0       -0.00580  -0.00413  -0.00001  -0.00230   0.00488
  41        6D+1        0.00000   0.00006   0.01365   0.00000  -0.00008
  42        6D-1        0.00005   0.00002   0.00421   0.00004  -0.00002
  43        6D+2       -0.00375   0.00434   0.00000  -0.00120  -0.00772
  44        6D-2       -0.00525   0.00003  -0.00001  -0.00081   0.00091
  45 3   H  1S          0.04249   0.00047  -0.00004  -0.01352   0.00220
  46        2S          0.06456   0.03150  -0.00037   0.00249   0.02476
  47        3S          0.04507  -0.41134   0.00110  -0.16911  -0.29880
  48        4S          0.00338  -1.54275  -0.00114   4.89874  -0.29249
  49        5PX         0.00293  -0.00259   0.00000   0.00524  -0.00190
  50        5PY         0.00276   0.01228  -0.00001  -0.00957  -0.00055
  51        5PZ         0.00001   0.00003  -0.00415  -0.00004  -0.00002
  52 4   H  1S         -0.02290  -0.00077   0.00458   0.00582   0.00554
  53        2S         -0.03706   0.02909   0.05287  -0.00632   0.01713
  54        3S         -0.03155  -0.54561  -0.13832   0.11480  -0.21933
  55        4S         -0.00746  -2.01478   3.65962  -2.31071  -0.95160
  56        5PX        -0.00138  -0.00103   0.00585  -0.00242  -0.00306
  57        5PY        -0.00098  -0.00618   0.00589   0.00174  -0.00006
  58        5PZ         0.00256  -0.01140   0.00524  -0.00606  -0.00022
  59 5   H  1S         -0.02317  -0.00096  -0.00461   0.00583   0.00581
  60        2S         -0.03754   0.02863  -0.05305  -0.00618   0.01795
  61        3S         -0.03188  -0.54446   0.13967   0.11452  -0.21667
  62        4S         -0.00751  -2.01267  -3.64631  -2.31980  -0.95129
  63        5PX        -0.00138  -0.00107  -0.00585  -0.00245  -0.00304
  64        5PY        -0.00093  -0.00627  -0.00591   0.00166  -0.00009
  65        5PZ        -0.00259   0.01134   0.00522   0.00610   0.00024
  66 6   O  1S         -0.00244  -0.00929  -0.00001   0.00406   0.01495
  67        2S         -0.00379  -0.01543  -0.00001   0.00712   0.02536
  68        2PX        -0.15549   0.00475   0.00002  -0.00595   0.03343
  69        2PY         0.14770  -0.00250   0.00005   0.02205   0.00183
  70        2PZ        -0.00030   0.00031   0.03640   0.00006  -0.00051
  71        3S          0.01093   0.05069   0.00006  -0.03154  -0.09379
  72        3PX        -0.23195   0.00379   0.00007  -0.01180   0.05640
  73        3PY         0.21020  -0.00430   0.00007   0.03801   0.00256
  74        3PZ        -0.00045   0.00043   0.05014   0.00010  -0.00079
  75        4S          0.02098   0.09230  -0.00018   0.04618  -0.09703
  76        4PX        -0.22794   0.03394  -0.00019   0.01020   0.00483
  77        4PY         0.21124   0.01476   0.00000   0.01513  -0.04925
  78        4PZ        -0.00045   0.00067   0.08459   0.00004  -0.00091
  79        5S          0.03283   0.10843   0.00183  -0.32387  -1.29200
  80        5PX        -0.07308  -0.13145   0.00175  -0.10046   0.18735
  81        5PY         0.06460  -0.06798   0.00048   0.13234  -0.37142
  82        5PZ        -0.00013   0.00003   0.06113   0.00039  -0.00265
  83        6D 0       -0.00003  -0.00105  -0.00001  -0.00061   0.00096
  84        6D+1       -0.00003  -0.00001  -0.00320   0.00000   0.00001
  85        6D-1        0.00000  -0.00001  -0.00377   0.00001   0.00003
  86        6D+2       -0.00938  -0.00019   0.00000  -0.00130   0.00067
  87        6D-2       -0.00373   0.00128   0.00001   0.00008  -0.00058
  88 7   O  1S          0.00260  -0.00913  -0.00003  -0.00473   0.01337
  89        2S          0.00408  -0.01519  -0.00005  -0.00800   0.02260
  90        2PX         0.16458   0.00327  -0.00001  -0.00355   0.03475
  91        2PY         0.13289   0.00227   0.00003   0.01708   0.00109
  92        2PZ         0.00033   0.00029   0.02321   0.00001  -0.00048
  93        3S         -0.01245   0.05072   0.00024   0.02930  -0.08158
  94        3PX         0.24444   0.00172   0.00003  -0.00945   0.05862
  95        3PY         0.18804   0.00145   0.00007   0.02469   0.00117
  96        3PZ         0.00050   0.00039   0.02369   0.00001  -0.00074
  97        4S         -0.01824   0.08225  -0.00057   0.01066  -0.10831
  98        4PX         0.24360   0.02385  -0.00022   0.01259   0.00827
  99        4PY         0.18792   0.00467  -0.00004   0.02544   0.06296
 100        4PZ         0.00050   0.00063   0.09033   0.00004  -0.00085
 101        5S         -0.03139  -0.02178   0.00441   0.10806  -1.16816
 102        5PX         0.07583  -0.18075   0.00155  -0.16104   0.22826
 103        5PY         0.05839  -0.01671   0.00051   0.04187   0.29880
 104        5PZ         0.00013  -0.00010  -0.06853  -0.00008  -0.00262
 105        6D 0       -0.00011  -0.00096  -0.00001  -0.00062   0.00116
 106        6D+1        0.00003  -0.00001  -0.00226   0.00001   0.00001
 107        6D-1       -0.00001   0.00002   0.00508   0.00000  -0.00003
 108        6D+2        0.00863   0.00001   0.00000   0.00072   0.00134
 109        6D-2       -0.00530  -0.00063  -0.00001  -0.00006   0.00076
                          21        22        23        24        25
                           V         V         V         V         V
     Eigenvalues --     0.12185   0.13250   0.14269   0.14378   0.16619
   1 1   C  1S          0.00020  -0.00107  -0.01250   0.00027   0.00029
   2        2S          0.00034  -0.00181  -0.02107   0.00044   0.00030
   3        2PX        -0.00011   0.00166   0.04804  -0.00070   0.01095
   4        2PY         0.00012   0.03209  -0.00334   0.00007   0.00216
   5        2PZ        -0.21570   0.00076  -0.00065  -0.06981   0.00058
   6        3S         -0.00107   0.00782   0.08062  -0.00151   0.00315
   7        3PX        -0.00003   0.00218   0.06239  -0.00092   0.01802
   8        3PY         0.00008   0.02032  -0.00450   0.00009   0.02440
   9        3PZ        -0.33293   0.00116  -0.00080  -0.08938   0.00051
  10        4S         -0.00063  -0.02617   0.04066  -0.00370  -0.03960
  11        4PX        -0.00179   0.01254   0.15202  -0.00168   0.05351
  12        4PY         0.00197   0.81557  -0.03767   0.00085  -0.12171
  13        4PZ        -0.64999   0.00237  -0.00237  -0.26946   0.00322
  14        5S         -0.07802  -1.40040  -0.87665  -0.08554   9.21981
  15        5PX        -0.03947  -0.36524  -2.43772   0.01045   2.68430
  16        5PY         0.00991   3.55611  -0.07411   0.00268   1.49018
  17        5PZ        -0.68112   0.00250   0.04124   2.70376   0.01927
  18        6D 0       -0.00033  -0.00150  -0.00728   0.00010   0.01966
  19        6D+1       -0.02354   0.00007   0.00016   0.00687  -0.00015
  20        6D-1        0.00266  -0.00006   0.00000   0.00040  -0.00002
  21        6D+2       -0.00012  -0.00028  -0.01812   0.00029  -0.00182
  22        6D-2        0.00005  -0.00047   0.00296  -0.00005   0.00374
  23 2   C  1S         -0.00019   0.00084  -0.00123   0.00000   0.00751
  24        2S         -0.00031   0.00160  -0.00131   0.00000   0.01219
  25        2PX        -0.00033  -0.00309   0.00664  -0.00023   0.01414
  26        2PY         0.00019   0.01729   0.00420  -0.00005   0.01311
  27        2PZ         0.00434  -0.00005   0.00028   0.01367   0.00021
  28        3S          0.00075  -0.01338  -0.00888   0.00015  -0.02920
  29        3PX        -0.00047  -0.00496   0.03199  -0.00076   0.01916
  30        3PY         0.00024   0.02951   0.01167  -0.00019   0.05517
  31        3PZ         0.02269  -0.00015   0.00076   0.03916   0.00090
  32        4S          0.00454   0.08907   0.15214  -0.00118  -0.22271
  33        4PX        -0.00094  -0.01165  -0.02434   0.00058   0.05439
  34        4PY         0.00076  -0.09768  -0.01121   0.00015  -0.07913
  35        4PZ        -0.15883   0.00090   0.00011  -0.00642  -0.00169
  36        5S          0.06447   1.91630   2.57719   0.05058  -6.57116
  37        5PX        -0.02384  -0.38245   1.69607  -0.05246   2.86312
  38        5PY         0.00215  -0.34035  -0.14972   0.00440  -5.04172
  39        5PZ         0.32239   0.00282  -0.00797  -1.00242  -0.10200
  40        6D 0        0.00004  -0.00577  -0.01824   0.00030   0.02859
  41        6D+1        0.03992  -0.00013  -0.00013   0.00197   0.00026
  42        6D-1        0.01543   0.00004  -0.00004   0.00393   0.00054
  43        6D+2       -0.00001  -0.00325   0.02403  -0.00037   0.02346
  44        6D-2       -0.00004  -0.00346  -0.00158   0.00002   0.00808
  45 3   H  1S         -0.00013   0.01065  -0.01136   0.00015  -0.04665
  46        2S         -0.00046   0.03222  -0.00419   0.00036   0.08458
  47        3S         -0.00022  -0.16413  -0.13210  -0.00101  -1.34508
  48        4S          0.01630   2.19224  -0.75625   0.02035  -5.16600
  49        5PX        -0.00003   0.00722   0.01358  -0.00020   0.00342
  50        5PY        -0.00005  -0.00635   0.00514  -0.00011   0.01250
  51        5PZ         0.00092  -0.00006   0.00006  -0.00054  -0.00036
  52 4   H  1S          0.05890  -0.00520  -0.01543   0.01031   0.02038
  53        2S          0.11549  -0.01232  -0.02724  -0.02508  -0.03092
  54        3S          0.52818  -0.11650  -0.00064   0.26567   0.70493
  55        4S         -0.92811  -1.22616  -0.39966  -1.39220   1.70492
  56        5PX         0.00689  -0.00195   0.01278  -0.00469   0.00099
  57        5PY         0.00091   0.00397  -0.00235  -0.00022  -0.01303
  58        5PZ        -0.00055  -0.00244  -0.00769  -0.00063   0.01155
  59 5   H  1S         -0.05891  -0.00489  -0.01522  -0.00981   0.01868
  60        2S         -0.11618  -0.01179  -0.02559   0.02638  -0.02903
  61        3S         -0.52764  -0.11018  -0.00438  -0.26965   0.66096
  62        4S          0.93160  -1.23730  -0.34805   1.39698   1.55740
  63        5PX        -0.00685  -0.00198   0.01298   0.00425   0.00093
  64        5PY        -0.00081   0.00387  -0.00231   0.00032  -0.01352
  65        5PZ        -0.00048   0.00251   0.00764  -0.00089  -0.01149
  66 6   O  1S         -0.00006  -0.01321  -0.00103  -0.00003  -0.00026
  67        2S         -0.00009  -0.02245  -0.00157  -0.00006  -0.00015
  68        2PX         0.00026   0.00341   0.02087  -0.00035  -0.00807
  69        2PY         0.00005  -0.02121  -0.00874   0.00019  -0.00855
  70        2PZ         0.13811  -0.00032  -0.00064  -0.01667   0.00041
  71        3S          0.00034   0.08448   0.00434   0.00031  -0.00704
  72        3PX         0.00045  -0.00124   0.04300  -0.00066  -0.01619
  73        3PY         0.00001  -0.04750  -0.01726   0.00034  -0.00720
  74        3PZ         0.20252  -0.00047  -0.00126  -0.04478   0.00061
  75        4S          0.00013   0.09389   0.02228  -0.00065   0.05138
  76        4PX         0.00001   0.08418  -0.03535   0.00036   0.01174
  77        4PY         0.00007   0.08340  -0.00371   0.00031  -0.02052
  78        4PZ         0.26596  -0.00048   0.00033   0.06825   0.00070
  79        5S          0.00387   2.58906   0.04068   0.00953  -0.65836
  80        5PX         0.00510   0.44609   0.49870  -0.00545  -0.39490
  81        5PY        -0.00119   0.15534   0.00499   0.00114  -0.11520
  82        5PZ         0.39971   0.00061  -0.00825  -0.45663  -0.00136
  83        6D 0       -0.00005   0.00018  -0.00054  -0.00002   0.00283
  84        6D+1       -0.00696   0.00002  -0.00004  -0.00402  -0.00003
  85        6D-1       -0.00841   0.00004  -0.00007  -0.00475   0.00008
  86        6D+2        0.00000   0.00081   0.00400  -0.00006   0.00001
  87        6D-2        0.00001  -0.00203   0.00129  -0.00002   0.00064
  88 7   O  1S          0.00004   0.01521  -0.00208  -0.00001  -0.00203
  89        2S          0.00007   0.02581  -0.00335  -0.00002  -0.00318
  90        2PX         0.00012  -0.00563   0.01909  -0.00034   0.01602
  91        2PY        -0.00023  -0.02542   0.00852  -0.00020   0.02625
  92        2PZ         0.12797  -0.00059  -0.00045  -0.01197  -0.00034
  93        3S         -0.00029  -0.09627   0.01083   0.00015   0.00558
  94        3PX         0.00026  -0.00328   0.03997  -0.00064   0.02847
  95        3PY        -0.00038  -0.05250   0.01735  -0.00037   0.03277
  96        3PZ         0.18920  -0.00086  -0.00099  -0.03767  -0.00044
  97        4S         -0.00015  -0.10773   0.02915  -0.00089   0.08210
  98        4PX        -0.00043  -0.07722  -0.03129   0.00024   0.01416
  99        4PY         0.00023   0.07659  -0.00552  -0.00009   0.06021
 100        4PZ         0.23816  -0.00125   0.00069   0.07626  -0.00090
 101        5S         -0.01005  -2.59376   0.28934   0.00412  -0.24989
 102        5PX         0.00232  -0.39435   0.53627  -0.00672   0.23344
 103        5PY         0.00188   0.21958  -0.02938  -0.00090  -0.21854
 104        5PZ         0.44679  -0.00365  -0.00816  -0.45279  -0.00030
 105        6D 0       -0.00005  -0.00130  -0.00084  -0.00001   0.00379
 106        6D+1       -0.00544   0.00003  -0.00004  -0.00343  -0.00001
 107        6D-1        0.00953  -0.00003   0.00005   0.00447  -0.00001
 108        6D+2       -0.00001  -0.00116   0.00364  -0.00006   0.00105
 109        6D-2       -0.00002  -0.00156  -0.00186   0.00003  -0.00298
                          26        27        28        29        30
                           V         V         V         V         V
     Eigenvalues --     0.17118   0.18548   0.19723   0.25682   0.26932
   1 1   C  1S          0.00010  -0.00830   0.00487   0.00917   0.00130
   2        2S          0.00015  -0.01307   0.00685   0.01441   0.00199
   3        2PX         0.00009   0.00173   0.01178   0.02288   0.00057
   4        2PY         0.00012  -0.00152  -0.00148  -0.02337   0.00010
   5        2PZ        -0.06343  -0.00122   0.00040  -0.00024   0.05474
   6        3S         -0.00034   0.02352   0.00161  -0.02517  -0.00174
   7        3PX         0.00022   0.02757   0.01669  -0.00095  -0.00055
   8        3PY         0.00066  -0.01136   0.00682  -0.04558   0.00144
   9        3PZ        -0.07442  -0.00151   0.00022  -0.00041   0.08077
  10        4S         -0.00212   0.28945  -0.59869  -0.43736  -0.10674
  11        4PX         0.00033  -0.36594   0.13601   0.55558   0.02649
  12        4PY        -0.00181   0.15735   0.01105   0.22978  -0.02078
  13        4PZ        -0.29475  -0.00572   0.00327  -0.00083   0.36386
  14        5S          0.02368  17.79092 -30.49433  -1.28798   0.22368
  15        5PX         0.00708   5.77593  -8.70334  -0.50061   0.03967
  16        5PY         0.04102  -0.60665   0.58159   0.31301  -0.02077
  17        5PZ        -1.15534  -0.01174   0.01576  -0.00203   0.09654
  18        6D 0        0.00013   0.03054  -0.00987   0.01203   0.00114
  19        6D+1        0.00274  -0.00004   0.00002  -0.00004  -0.00917
  20        6D-1        0.00017   0.00000  -0.00002  -0.00007   0.00434
  21        6D+2       -0.00008   0.00851  -0.00574  -0.00405   0.00047
  22        6D-2        0.00005  -0.00822  -0.00148  -0.03005   0.00124
  23 2   C  1S          0.00006   0.03314   0.03272  -0.00111   0.00010
  24        2S          0.00009   0.05492   0.05394  -0.00218   0.00010
  25        2PX         0.00006  -0.01961  -0.05468   0.01951  -0.00018
  26        2PY         0.00047  -0.02314   0.00861  -0.14699   0.00470
  27        2PZ        -0.01595  -0.00033   0.00026  -0.00014  -0.17214
  28        3S         -0.00027  -0.16270  -0.13829   0.02369   0.00113
  29        3PX        -0.00006  -0.02883  -0.10134   0.02316  -0.00074
  30        3PY         0.00153  -0.05134   0.01628  -0.16773   0.00517
  31        3PZ        -0.04718  -0.00070   0.00023  -0.00016  -0.19156
  32        4S         -0.00161  -0.42194  -0.68852  -0.37511  -0.02906
  33        4PX         0.00099  -0.24532  -0.12161   0.32614   0.00112
  34        4PY        -0.00158  -0.05926   0.00823  -1.23468   0.04279
  35        4PZ         0.01808  -0.00041   0.00140  -0.00178  -1.31745
  36        5S         -0.00378  -5.61979  35.23203   0.13382  -0.33061
  37        5PX         0.00193   5.75367  -8.02595  -0.75163   0.05986
  38        5PY        -0.13074   2.39020  -0.76534   1.88060   0.04067
  39        5PZ         4.69218   0.02577  -0.00299   0.00991   1.65858
  40        6D 0        0.00037  -0.01052   0.00440   0.01643  -0.00074
  41        6D+1       -0.00606   0.00013   0.00002   0.00005   0.00604
  42        6D-1       -0.03724  -0.00003   0.00001  -0.00023   0.02460
  43        6D+2        0.00025   0.00731   0.00099   0.01028  -0.00090
  44        6D-2        0.00023  -0.00147   0.00334   0.01960  -0.00115
  45 3   H  1S         -0.00096   0.00280  -0.01052  -0.04066   0.00291
  46        2S          0.00201   0.01490   0.20477  -0.18720   0.00836
  47        3S         -0.03177  -0.12692  -1.43148  -1.63335   0.10119
  48        4S         -0.10663  -0.10834  -2.43049   4.45914   0.03766
  49        5PX         0.00002   0.00668  -0.00096  -0.00941   0.00024
  50        5PY         0.00012  -0.00448  -0.00899   0.02468  -0.00059
  51        5PZ         0.02084   0.00004  -0.00005   0.00013  -0.01349
  52 4   H  1S         -0.03506  -0.01344   0.00006   0.01971   0.02914
  53        2S          0.07901   0.12098   0.17377   0.12021   0.12559
  54        3S         -1.07955  -0.98037  -1.05866   0.75219   1.59523
  55        4S         -4.17089  -4.18939  -0.73240  -1.56051  -3.21188
  56        5PX        -0.00025   0.00705   0.00079   0.00190   0.00422
  57        5PY        -0.01372   0.00482   0.00392  -0.00130   0.01790
  58        5PZ        -0.00264   0.00268   0.00856   0.00979   0.01834
  59 5   H  1S          0.03603  -0.01356   0.00005   0.01994  -0.03105
  60        2S         -0.08011   0.11940   0.17442   0.12077  -0.12962
  61        3S          1.10692  -0.97360  -1.05997   0.76000  -1.62957
  62        4S          4.26569  -4.13339  -0.75452  -1.56064   3.25204
  63        5PX         0.00018   0.00705   0.00077   0.00188  -0.00535
  64        5PY         0.01321   0.00488   0.00399  -0.00114  -0.01756
  65        5PZ        -0.00301  -0.00263  -0.00858  -0.00984   0.01940
  66 6   O  1S         -0.00005   0.01265  -0.00346  -0.00466  -0.00040
  67        2S         -0.00008   0.02131  -0.00603  -0.00741  -0.00064
  68        2PX        -0.00023  -0.01741  -0.00644   0.00234   0.00159
  69        2PY         0.00008  -0.01141   0.00455  -0.04581  -0.00088
  70        2PZ        -0.00890   0.00036   0.00001  -0.00011   0.00830
  71        3S          0.00017  -0.07874   0.02614   0.01389   0.00136
  72        3PX        -0.00043  -0.03558  -0.00770   0.00581   0.00280
  73        3PY         0.00022  -0.01397   0.00357  -0.05071  -0.00055
  74        3PZ        -0.01173   0.00049   0.00002  -0.00010  -0.00137
  75        4S          0.00093  -0.06475  -0.01736   0.20949   0.01142
  76        4PX         0.00005   0.03957  -0.02287   0.01800   0.00199
  77        4PY        -0.00001  -0.03398   0.04541  -0.10916  -0.00140
  78        4PZ        -0.01828   0.00100  -0.00006  -0.00043   0.07509
  79        5S         -0.00735  -1.17601   1.35048   0.53813  -0.01206
  80        5PX        -0.00702  -0.54658   0.19533   0.13222   0.01963
  81        5PY        -0.00210  -0.26491   0.18225   0.80956   0.03855
  82        5PZ         0.18624   0.00145  -0.00100   0.00414  -0.65794
  83        6D 0        0.00001   0.00202  -0.00198   0.00257   0.00029
  84        6D+1        0.00042  -0.00003   0.00000   0.00000   0.00220
  85        6D-1       -0.00648  -0.00008   0.00003  -0.00005   0.00781
  86        6D+2       -0.00001  -0.00091   0.00283   0.00640   0.00025
  87        6D-2       -0.00001   0.00193  -0.00272   0.00158  -0.00029
  88 7   O  1S         -0.00007   0.01328  -0.00526  -0.01076  -0.00010
  89        2S         -0.00011   0.02236  -0.00923  -0.01740  -0.00013
[...]
                                                                       X                                                             
                                                                       X                                                             
                                                                       X                                                             
                                                                       X                                                             
                                                                       X                                                             
                                                                       X                                                             
 
 ***** Axes restored to original set *****
 -------------------------------------------------------------------
 Center     Atomic                   Forces (Hartrees/Bohr)
 Number     Number              X              Y              Z
 -------------------------------------------------------------------
      1        6          -0.000043473   -0.000393888    0.000129105
      2        6           0.000124512   -0.000193516   -0.000012800
      3        1           0.000037324   -0.000027522   -0.000001266
      4        1          -0.000084055    0.000039875    0.000104740
      5        1          -0.000112193    0.000058129   -0.000129668
      6        8          -0.000004564    0.000254634   -0.000044277
      7        8           0.000082449    0.000262289   -0.000045834
 -------------------------------------------------------------------
 Cartesian Forces:  Max     0.000393888 RMS     0.000142410
 Force constants in Cartesian coordinates: 
                1             2             3             4             5 
      1  0.613039D+00
      2 -0.962445D-02  0.749532D+00
      3  0.505916D-03 -0.643782D-02  0.256239D+00
      4 -0.179359D+00 -0.166291D-02 -0.762836D-04  0.472780D+00
      5 -0.900234D-02 -0.743697D-01 -0.303639D-03  0.129873D-01  0.606774D+00
      6 -0.671198D-04 -0.294385D-03 -0.968864D-01 -0.998105D-04 -0.845133D-03
      7 -0.247075D-02 -0.286419D-01  0.247513D-03 -0.810189D-01 -0.849859D-01
      8  0.498065D-02 -0.181518D-02  0.757594D-05 -0.919174D-01 -0.290142D+00
      9 -0.246099D-04 -0.372832D-04 -0.325950D-02  0.854252D-03  0.218706D-02
     10 -0.646475D-02  0.153966D-01  0.302365D-01 -0.761380D-01  0.419793D-01
     11  0.603442D-03 -0.256685D-02  0.159305D-02  0.424555D-01 -0.110467D+00
     12 -0.330908D-02  0.347995D-03  0.117838D-02  0.762252D-01 -0.108063D+00
     13 -0.637045D-02  0.148001D-01 -0.304883D-01 -0.758524D-01  0.402173D-01
     14  0.674933D-03 -0.262296D-02 -0.151942D-02  0.407712D-01 -0.106615D+00
     15  0.332225D-02 -0.231919D-03  0.114654D-02 -0.767752D-01  0.106092D+00
     16 -0.219193D+00  0.144121D+00 -0.204227D-02 -0.309751D-01  0.434807D-01
     17  0.183782D+00 -0.325963D+00  0.342369D-02  0.155706D-01 -0.118958D-01
     18 -0.253828D-02  0.336374D-02 -0.779034D-01 -0.286008D-03  0.529396D-03
     19 -0.199181D+00 -0.134389D+00  0.161686D-02 -0.294367D-01 -0.446763D-01
     20 -0.171415D+00 -0.342194D+00  0.323655D-02 -0.182043D-01 -0.132851D-01
     21  0.211093D-02  0.328967D-02 -0.805150D-01  0.157828D-03  0.402966D-03
                6             7             8             9            10 
      6  0.536876D+00
      7  0.777545D-03  0.857590D-01
      8  0.216723D-02  0.968415D-01  0.310586D+00
      9 -0.464326D-01 -0.907763D-03 -0.238299D-02  0.436921D-01
     10  0.780547D-01  0.355697D-02 -0.474434D-02 -0.100145D-01  0.811556D-01
     11 -0.109639D+00  0.107502D-01 -0.114300D-01 -0.232488D-01 -0.479164D-01
     12 -0.218035D+00 -0.149075D-02  0.151004D-02  0.181944D-02 -0.812153D-01
     13 -0.785261D-01  0.353177D-02 -0.455086D-02  0.101005D-01  0.374373D-02
     14  0.107679D+00  0.107239D-01 -0.110179D-01  0.234919D-01 -0.624674D-02
     15 -0.222214D+00  0.129895D-02 -0.128380D-02  0.144015D-02 -0.906728D-02
     16 -0.646276D-03  0.200524D-02  0.104455D-02 -0.222231D-04 -0.650914D-02
     17  0.496416D-03 -0.177838D-03  0.244569D-02 -0.162760D-04  0.196199D-02
     18  0.265913D-01  0.148322D-04 -0.192718D-04  0.316079D-03 -0.441726D-02
     19  0.507071D-03 -0.113633D-01 -0.165416D-02  0.143663D-04  0.655610D-03
     20  0.435391D-03 -0.450991D-02  0.137376D-02  0.644166D-05 -0.430345D-03
     21  0.201004D-01  0.596720D-04  0.121910D-05  0.242434D-02 -0.357685D-02
               11            12            13            14            15 
     11  0.115838D+00
     12  0.118056D+00  0.234386D+00
     13 -0.610638D-02  0.922351D-02  0.808488D-01
     14  0.794429D-02 -0.132060D-01 -0.461281D-01  0.111639D+00
     15  0.126932D-01 -0.193868D-01  0.817998D-01 -0.115894D+00  0.238905D+00
     16  0.192364D-02  0.335491D-04 -0.658215D-02  0.192667D-02 -0.834612D-04
     17  0.775331D-03  0.422155D-03  0.209023D-02  0.772872D-03 -0.448410D-03
     18  0.324881D-03 -0.698292D-03  0.432768D-02 -0.337028D-03 -0.663000D-03
     19 -0.170998D-02  0.532869D-03  0.680659D-03 -0.172185D-02 -0.495052D-03
     20 -0.937347D-04  0.932308D-03 -0.322264D-03 -0.100967D-03 -0.927524D-03
     21  0.219828D-03  0.736742D-03  0.356289D-02 -0.214653D-03  0.772282D-03
               16            17            18            19            20 
     16  0.217276D+00
     17 -0.203779D+00  0.478038D+00
     18  0.288320D-02 -0.609931D-02  0.259664D-01
     19  0.439787D-01  0.551368D-03  0.158299D-04  0.194666D+00
     20  0.112818D-01 -0.144173D+00  0.223759D-02  0.183600D+00  0.498473D+00
     21 -0.122521D-03  0.222173D-02  0.263909D-01 -0.219194D-02 -0.592076D-02
               21 
     21  0.300903D-01
 Force constants in internal coordinates: 
                1             2             3             4             5 
      1  0.276288D+00
      2  0.370130D-01  0.589274D+00
      3  0.390812D-01  0.127088D+00  0.585012D+00
      4  0.369899D-03  0.116928D-02  0.282384D-02  0.346602D+00
      5  0.229648D-02  0.151630D-02  0.418368D-03  0.149494D-02  0.341385D+00
      6  0.226545D-02  0.152752D-02  0.423978D-03  0.149667D-02  0.179087D-02
      7  0.213024D-01  0.189080D-01 -0.559240D-01 -0.802119D-02  0.526104D-02
      8  0.201899D-01 -0.557709D-01  0.207155D-01  0.100901D-01 -0.389276D-02
      9 -0.414923D-01  0.368629D-01  0.352085D-01 -0.206890D-02 -0.136745D-02
     10  0.141001D-01 -0.546634D-02  0.125115D-01  0.749441D-03 -0.533973D-02
     11  0.114045D-01  0.675509D-02 -0.219530D-02 -0.546063D-02  0.293457D-02
     12  0.114452D-01  0.683070D-02 -0.224338D-02 -0.545510D-02 -0.599259D-02
     13 -0.123809D-01 -0.162219D-02 -0.466863D-02  0.535387D-02  0.469479D-02
     14 -0.123707D-01 -0.165688D-02 -0.465227D-02  0.536649D-02 -0.761564D-03
     15 -0.134588D-01 -0.486093D-02  0.758560D-03 -0.571917D-03  0.491768D-02
     16  0.000000D+00  0.871599D-05  0.110026D-04 -0.143345D-04  0.509982D-02
     17 -0.146570D-02  0.102154D-02 -0.821273D-03 -0.352401D-02  0.671209D-03
     18  0.152820D-02 -0.998088D-03  0.842028D-03  0.351473D-02 -0.350094D-02
     19 -0.390575D-04 -0.129663D-04 -0.956064D-05 -0.593390D-05  0.295749D-02
     20 -0.150541D-02  0.999862D-03 -0.841836D-03 -0.351561D-02 -0.147112D-02
     21  0.148849D-02 -0.101977D-02  0.821464D-03  0.352313D-02 -0.564326D-02
                6             7             8             9            10 
      6  0.341342D+00
      7  0.532177D-02  0.177435D+00
      8 -0.395793D-02 -0.719446D-01  0.179599D+00
      9 -0.136467D-02 -0.105490D+00 -0.107654D+00  0.213144D+00
     10 -0.532693D-02 -0.123320D-01  0.173765D-01 -0.504450D-02  0.103176D+00
     11 -0.599436D-02  0.945429D-02 -0.679519D-02 -0.265564D-02 -0.215310D-01
     12  0.289439D-02  0.957969D-02 -0.688120D-02 -0.270192D-02 -0.216094D-01
     13 -0.761287D-03  0.114278D-02 -0.501764D-02  0.387369D-02 -0.364819D-01
     14  0.470881D-02  0.111236D-02 -0.499238D-02  0.388119D-02 -0.364468D-01
     15  0.492599D-02 -0.887301D-02  0.586170D-02  0.301130D-02  0.899708D-02
     16 -0.508428D-02  0.195403D-04  0.436235D-05 -0.132489D-04 -0.416939D-04
     17  0.349602D-02  0.207283D-03 -0.433604D-03  0.236091D-03 -0.710204D-02
     18 -0.658225D-03 -0.127158D-03  0.428172D-03 -0.291249D-03  0.709899D-02
     19 -0.294911D-02 -0.163079D-04 -0.271729D-04  0.332478D-04 -0.157352D-04
     20  0.563119D-02  0.171435D-03 -0.465139D-03  0.282588D-03 -0.707608D-02
     21  0.147695D-02 -0.163007D-03  0.396637D-03 -0.244752D-03  0.712494D-02
               11            12            13            14            15 
     11  0.962553D-01
     12 -0.127005D-01  0.962774D-01
     13 -0.370754D-01  0.881277D-02  0.535187D-01
     14  0.879945D-02 -0.371186D-01  0.703465D-02  0.535365D-01
     15 -0.345838D-01 -0.345105D-01  0.612320D-02  0.611895D-02  0.498381D-01
     16  0.110264D-01 -0.110017D-01  0.766509D-02 -0.762554D-02 -0.128587D-04
     17  0.599429D-02  0.803535D-03 -0.104871D-01  0.144221D-02  0.100566D-01
     18 -0.777631D-03 -0.602642D-02 -0.145127D-02  0.104977D-01 -0.100529D-01
     19  0.214678D-02 -0.216758D-02  0.106747D-01 -0.106303D-01  0.000000D+00
     20 -0.288536D-02  0.963769D-02 -0.747744D-02 -0.156256D-02  0.100689D-01
     21 -0.965728D-02  0.280774D-02  0.155836D-02  0.749294D-02 -0.100406D-01
               16            17            18            19            20 
     16  0.253753D-01
     17  0.815618D-02  0.219651D-01
     18  0.815298D-02  0.584687D-02  0.219621D-01
     19 -0.204365D-02 -0.169896D-01 -0.169776D-01  0.242920D-01
     20 -0.192628D-01 -0.318070D-02 -0.192837D-01  0.934605D-02  0.254281D-01
     21 -0.192660D-01 -0.192989D-01 -0.316853D-02  0.935798D-02  0.932506D-02
               21 
     21  0.254554D-01
 Leave Link  716 at Fri Aug 10 09:00:04 2018, MaxMem=  229376000 cpu:       0.4
 (Enter //home/renato/Gaussian09/g09/l103.exe)

 GradGradGradGradGradGradGradGradGradGradGradGradGradGradGradGradGradGrad
 Berny optimization.
 Red2BG is reusing G-inverse.
 Internal  Forces:  Max     0.000241567 RMS     0.000089843
 Search for a local minimum.
 Step number   1 out of a maximum of    2
 All quantities printed in internal units (Hartrees-Bohrs-Radians)
 Second derivative matrix not updated -- analytic derivatives used.
 ITU=  0
     Eigenvalues ---    0.00060   0.05181   0.05706   0.07677   0.11971
     Eigenvalues ---    0.13755   0.13763   0.22876   0.23336   0.34046
     Eigenvalues ---    0.34353   0.34821   0.35629   0.48666   0.72876
 Angle between quadratic step and forces=  56.88 degrees.
 Linear search not attempted -- first point.
 Iteration  1 RMS(Cart)=  0.00043503 RMS(Int)=  0.00000016
 Iteration  2 RMS(Cart)=  0.00000015 RMS(Int)=  0.00000003
 Variable       Old X    -DE/DX   Delta X   Delta X   Delta X     New X
                                 (Linear)    (Quad)   (Total)
    R1        2.87541  -0.00004   0.00000  -0.00002  -0.00002   2.87539
    R2        2.38288   0.00019   0.00000   0.00048   0.00048   2.38336
    R3        2.38684  -0.00024   0.00000  -0.00057  -0.00057   2.38628
    R4        2.06019   0.00001   0.00000   0.00003   0.00003   2.06022
    R5        2.06630  -0.00015   0.00000  -0.00044  -0.00044   2.06586
    R6        2.06633  -0.00018   0.00000  -0.00053  -0.00053   2.06580
    A1        2.06804  -0.00007   0.00000  -0.00037  -0.00037   2.06768
    A2        2.04343   0.00000   0.00000   0.00017   0.00017   2.04361
    A3        2.17171   0.00006   0.00000   0.00019   0.00019   2.17190
    A4        1.95369  -0.00001   0.00000  -0.00012  -0.00012   1.95356
    A5        1.91042  -0.00001   0.00000  -0.00008  -0.00008   1.91034
    A6        1.91100  -0.00004   0.00000  -0.00025  -0.00025   1.91075
    A7        1.90686   0.00001   0.00000   0.00007   0.00007   1.90693
    A8        1.90707   0.00001   0.00000   0.00000   0.00000   1.90707
    A9        1.87304   0.00003   0.00000   0.00041   0.00041   1.87345
    D1        0.00343   0.00003   0.00000  -0.00034  -0.00034   0.00309
    D2       -2.11346   0.00003   0.00000  -0.00029  -0.00029  -2.11375
    D3        2.12099   0.00002   0.00000  -0.00059  -0.00059   2.12040
    D4       -3.13775  -0.00003   0.00000  -0.00099  -0.00099  -3.13874
    D5        1.02854  -0.00003   0.00000  -0.00094  -0.00094   1.02760
    D6       -1.02020  -0.00004   0.00000  -0.00124  -0.00124  -1.02143
         Item               Value     Threshold  Converged?
 Maximum Force            0.000242     0.000450     YES
 RMS     Force            0.000090     0.000300     YES
 Maximum Displacement     0.001032     0.001800     YES
 RMS     Displacement     0.000435     0.001200     YES
 Predicted change in Energy=-2.615721D-07
 Optimization completed.
    -- Stationary point found.
                           ----------------------------
                           !   Optimized Parameters   !
                           ! (Angstroms and Degrees)  !
 --------------------------                            --------------------------
 ! Name  Definition              Value          Derivative Info.                !
 --------------------------------------------------------------------------------
 ! R1    R(1,2)                  1.5216         -DE/DX =    0.0                 !
 ! R2    R(1,6)                  1.261          -DE/DX =    0.0002              !
 ! R3    R(1,7)                  1.2631         -DE/DX =   -0.0002              !
 ! R4    R(2,3)                  1.0902         -DE/DX =    0.0                 !
 ! R5    R(2,4)                  1.0934         -DE/DX =   -0.0001              !
 ! R6    R(2,5)                  1.0935         -DE/DX =   -0.0002              !
 ! A1    A(2,1,6)              118.4902         -DE/DX =   -0.0001              !
 ! A2    A(2,1,7)              117.08           -DE/DX =    0.0                 !
 ! A3    A(6,1,7)              124.4298         -DE/DX =    0.0001              !
 ! A4    A(1,2,3)              111.938          -DE/DX =    0.0                 !
 ! A5    A(1,2,4)              109.4588         -DE/DX =    0.0                 !
 ! A6    A(1,2,5)              109.4923         -DE/DX =    0.0                 !
 ! A7    A(3,2,4)              109.2551         -DE/DX =    0.0                 !
 ! A8    A(3,2,5)              109.2668         -DE/DX =    0.0                 !
 ! A9    A(4,2,5)              107.3174         -DE/DX =    0.0                 !
 ! D1    D(6,1,2,3)              0.1967         -DE/DX =    0.0                 !
 ! D2    D(6,1,2,4)           -121.0924         -DE/DX =    0.0                 !
 ! D3    D(6,1,2,5)            121.5236         -DE/DX =    0.0                 !
 ! D4    D(7,1,2,3)           -179.7798         -DE/DX =    0.0                 !
 ! D5    D(7,1,2,4)             58.931          -DE/DX =    0.0                 !
 ! D6    D(7,1,2,5)            -58.4529         -DE/DX =    0.0                 !
 --------------------------------------------------------------------------------
 GradGradGradGradGradGradGradGradGradGradGradGradGradGradGradGradGradGrad

 Leave Link  103 at Fri Aug 10 09:00:04 2018, MaxMem=  229376000 cpu:       0.1
 (Enter //home/renato/Gaussian09/g09/l9999.exe)
 1\1\GINC-TARSUS\Freq\RwB97XD\6-311++G(d,p)\C2H3O2(1-)\RENATO\10-Aug-20
 18\0\\#P Geom=AllCheck Guess=TCheck SCRF=Check GenChk RwB97XD/6-311++G
 (d,p) Freq\\AcO-/AcO-.xyz\\-1,1\C,-0.1749357472,0.0019196991,-0.000855
 5492\C,1.3463658218,0.0319523305,0.0007553257\H,1.7336419142,1.0510132
 845,-0.0083314484\H,1.722210119,-0.5044505819,-0.874814194\H,1.7206356
 728,-0.4883779144,0.886658705\O,-0.7981674799,1.0980031253,-0.01572766
 66\O,-0.7276343017,-1.133707736,0.0134413965\\Version=EM64L-G09RevC.01
 \State=1-A\HF=-228.6360469\RMSD=1.113e-09\RMSF=1.424e-04\ZeroPoint=0.0
 488304\Thermal=0.0530983\Dipole=2.4003274,0.0496966,0.0017469\DipoleDe
 riv=1.9612622,-0.0618172,0.0025334,-0.0550416,3.4334082,-0.0406184,0.0
 023783,-0.0406574,0.3205289,-0.5240228,0.0384374,-0.0006115,0.0882107,
 0.0657054,0.0003988,-0.0008199,0.0003166,0.0838734,0.0072408,-0.070214
 8,0.0005854,-0.1181344,-0.1375807,0.002323,0.0007102,0.0023464,0.11509
 ,0.0461646,0.013613,0.0306266,0.019099,0.0502475,-0.108806,0.0921351,-
 0.1096083,-0.0372494,0.0461091,0.0129757,-0.0309252,0.0170144,0.054129
 3,0.107227,-0.0927217,0.1080696,-0.0415367,-1.2872644,0.767565,-0.0107
 041,0.344941,-2.2107273,0.0199449,-0.0050654,0.0202569,-0.7084717,-1.2
 494895,-0.7005592,0.0084954,-0.296089,-2.2551825,0.0195307,0.0033834,0
 .0192762,-0.7322344\Polar=47.557268,-1.2366588,59.1260512,0.0233456,-0
 .3156809,35.037956\PG=C01 [X(C2H3O2)]\NImag=0\\0.61303863,-0.00962445,
 0.74953202,0.00050592,-0.00643782,0.25623944,-0.17935913,-0.00166291,-
 0.00007628,0.47278029,-0.00900234,-0.07436967,-0.00030364,0.01298732,0
 .60677406,-0.00006712,-0.00029439,-0.09688643,-0.00009981,-0.00084513,
 0.53687634,-0.00247075,-0.02864190,0.00024751,-0.08101894,-0.08498595,
 0.00077754,0.08575905,0.00498065,-0.00181518,0.00000758,-0.09191737,-0
 .29014213,0.00216723,0.09684153,0.31058575,-0.00002461,-0.00003728,-0.
 00325950,0.00085425,0.00218706,-0.04643262,-0.00090776,-0.00238299,0.0
 4369211,-0.00646475,0.01539657,0.03023653,-0.07613801,0.04197926,0.078
 05472,0.00355697,-0.00474434,-0.01001452,0.08115559,0.00060344,-0.0025
 6685,0.00159305,0.04245546,-0.11046669,-0.10963860,0.01075021,-0.01142
 998,-0.02324885,-0.04791639,0.11583764,-0.00330908,0.00034800,0.001178
 38,0.07622524,-0.10806300,-0.21803502,-0.00149075,0.00151004,0.0018194
 4,-0.08121534,0.11805646,0.23438554,-0.00637045,0.01480009,-0.03048826
 ,-0.07585239,0.04021730,-0.07852613,0.00353177,-0.00455086,0.01010049,
 0.00374373,-0.00610638,0.00922351,0.08084883,0.00067493,-0.00262296,-0
 .00151942,0.04077123,-0.10661468,0.10767909,0.01072386,-0.01101791,0.0
 2349189,-0.00624674,0.00794429,-0.01320596,-0.04612811,0.11163936,0.00
 332225,-0.00023192,0.00114654,-0.07677522,0.10609234,-0.22221395,0.001
 29895,-0.00128380,0.00144015,-0.00906728,0.01269323,-0.01938678,0.0817
 9982,-0.11589392,0.23890476,-0.21919302,0.14412142,-0.00204227,-0.0309
 7512,0.04348071,-0.00064628,0.00200524,0.00104455,-0.00002222,-0.00650
 914,0.00192364,0.00003355,-0.00658215,0.00192667,-0.00008346,0.2172755
 1,0.18378247,-0.32596298,0.00342369,0.01557060,-0.01189580,0.00049642,
 -0.00017784,0.00244569,-0.00001628,0.00196199,0.00077533,0.00042216,0.
 00209023,0.00077287,-0.00044841,-0.20377881,0.47803754,-0.00253828,0.0
 0336374,-0.07790341,-0.00028601,0.00052940,0.02659131,0.00001483,-0.00
 001927,0.00031608,-0.00441726,0.00032488,-0.00069829,0.00432768,-0.000
 33703,-0.00066300,0.00288320,-0.00609931,0.02596638,-0.19918053,-0.134
 38881,0.00161686,-0.02943671,-0.04467631,0.00050707,-0.01136334,-0.001
 65416,0.00001437,0.00065561,-0.00170998,0.00053287,0.00068066,-0.00172
 185,-0.00049505,0.04397867,0.00055137,0.00001583,0.19466565,-0.1714147
 1,-0.34219437,0.00323655,-0.01820433,-0.01328509,0.00043539,-0.0045099
 1,0.00137376,0.00000644,-0.00043034,-0.00009373,0.00093231,-0.00032226
 ,-0.00010097,-0.00092752,0.01128182,-0.14417266,0.00223759,0.18359974,
 0.49847306,0.00211093,0.00328967,-0.08051501,0.00015783,0.00040297,0.0
 2010038,0.00005967,0.00000122,0.00242434,-0.00357685,0.00021983,0.0007
 3674,0.00356289,-0.00021465,0.00077228,-0.00012252,0.00222173,0.026390
 94,-0.00219194,-0.00592076,0.03009032\\0.00004347,0.00039389,-0.000129
 10,-0.00012451,0.00019352,0.00001280,-0.00003732,0.00002752,0.00000127
 ,0.00008405,-0.00003987,-0.00010474,0.00011219,-0.00005813,0.00012967,
 0.00000456,-0.00025463,0.00004428,-0.00008245,-0.00026229,0.00004583\\
 \@


 THERE ARE TWO THINGS THAT EVERYBODY THINKS THEY CAN DO BETTER THAN
 ANYONE ELSE - PUNCH THE FIRE, AND EDIT A DAILY PAPER.
 -- UNCLE ESEK, "CENTURY MAGAZINE", 1885
 Job cpu time:  0 days  0 hours 13 minutes 26.9 seconds.
 File lengths (MBytes):  RWF=     22 Int=      0 D2E=      0 Chk=      4 Scr=      1
 Normal termination of Gaussian 09 at Fri Aug 10 09:00:04 2018.
