 Entering Link 1 = C:\G09W\l1.exe PID=      7764.
  
 Copyright (c) 1988,1990,1992,1993,1995,1998,2003,2009, Gaussian, Inc.
                  All Rights Reserved.
  
 This is part of the Gaussian(R) 09 program.  It is based on
 the Gaussian(R) 03 system (copyright 2003, Gaussian, Inc.),
 the Gaussian(R) 98 system (copyright 1998, Gaussian, Inc.),
 the Gaussian(R) 94 system (copyright 1995, Gaussian, Inc.),
 the Gaussian 92(TM) system (copyright 1992, Gaussian, Inc.),
 the Gaussian 90(TM) system (copyright 1990, Gaussian, Inc.),
 the Gaussian 88(TM) system (copyright 1988, Gaussian, Inc.),
 the Gaussian 86(TM) system (copyright 1986, Carnegie Mellon
 University), and the Gaussian 82(TM) system (copyright 1983,
 Carnegie Mellon University). Gaussian is a federally registered
 trademark of Gaussian, Inc.
  
 This software contains proprietary and confidential information,
 including trade secrets, belonging to Gaussian, Inc.
  
 This software is provided under written license and may be
 used, copied, transmitted, or stored only in accord with that
 written license.
  
 The following legend is applicable only to US Government
 contracts under FAR:
  
                    RESTRICTED RIGHTS LEGEND
  
 Use, reproduction and disclosure by the US Government is
 subject to restrictions as set forth in subparagraphs (a)
 and (c) of the Commercial Computer Software - Restricted
 Rights clause in FAR 52.227-19.
  
 Gaussian, Inc.
 340 Quinnipiac St., Bldg. 40, Wallingford CT 06492
  
  
 ---------------------------------------------------------------
 Warning -- This program may not be used in any manner that
 competes with the business of Gaussian, Inc. or will provide
 assistance to any competitor of Gaussian, Inc.  The licensee
 of this program is prohibited from giving any competitor of
 Gaussian, Inc. access to this program.  By using this program,
 the user acknowledges that Gaussian, Inc. is engaged in the
 business of creating and licensing software in the field of
 computational chemistry and represents and warrants to the
 licensee that it is not a competitor of Gaussian, Inc. and that
 it will not use this program in any manner prohibited above.
 ---------------------------------------------------------------
  

 Cite this work as:
 Gaussian 09, Revision A.02,
 M. J. Frisch, G. W. Trucks, H. B. Schlegel, G. E. Scuseria, 
 M. A. Robb, J. R. Cheeseman, G. Scalmani, V. Barone, B. Mennucci, 
 G. A. Petersson, H. Nakatsuji, M. Caricato, X. Li, H. P. Hratchian, 
 A. F. Izmaylov, J. Bloino, G. Zheng, J. L. Sonnenberg, M. Hada, 
 M. Ehara, K. Toyota, R. Fukuda, J. Hasegawa, M. Ishida, T. Nakajima, 
 Y. Honda, O. Kitao, H. Nakai, T. Vreven, J. A. Montgomery, Jr., 
 J. E. Peralta, F. Ogliaro, M. Bearpark, J. J. Heyd, E. Brothers, 
 K. N. Kudin, V. N. Staroverov, R. Kobayashi, J. Normand, 
 K. Raghavachari, A. Rendell, J. C. Burant, S. S. Iyengar, J. Tomasi, 
 M. Cossi, N. Rega, J. M. Millam, M. Klene, J. E. Knox, J. B. Cross, 
 V. Bakken, C. Adamo, J. Jaramillo, R. Gomperts, R. E. Stratmann, 
 O. Yazyev, A. J. Austin, R. Cammi, C. Pomelli, J. W. Ochterski, 
 R. L. Martin, K. Morokuma, V. G. Zakrzewski, G. A. Voth, 
 P. Salvador, J. J. Dannenberg, S. Dapprich, A. D. Daniels, 
 O. Farkas, J. B. Foresman, J. V. Ortiz, J. Cioslowski, 
 and D. J. Fox, Gaussian, Inc., Wallingford CT, 2009.
 
 ******************************************
 Gaussian 09:  IA32W-G09RevA.02 11-Jun-2009
                11-Nov-2024 
 ******************************************
 -----------------------------------------------------------
 #p opt freq b3lyp/6-31+g pop=(mk,hirshfeld,regular) gfinput
 -----------------------------------------------------------
 1/14=-1,18=20,19=15,26=3,38=1/1,3;
 2/9=110,12=2,17=6,18=5,40=1/2;
 3/5=1,6=6,7=10,11=2,16=1,24=10,25=1,30=1,71=1,74=-5/1,2,3;
 4//1;
 5/5=2,38=5/2;
 6/15=8,20=1,28=1,79=1/1,2;
 7//1,2,3,16;
 1/14=-1,18=20,19=15/3(2);
 2/9=110/2;
 99//99;
 2/9=110/2;
 3/5=1,6=6,7=10,11=2,16=1,25=1,30=1,71=1,74=-5/1,2,3;
 4/5=5,16=3/1;
 5/5=2,38=5/2;
 7//1,2,3,16;
 1/14=-1,18=20,19=15/3(-5);
 2/9=110/2;
 6/15=8,19=2,20=1,28=1,79=1/1,2;
 99/9=1/99;
 Leave Link    1 at Mon Nov 11 12:06:46 2024, MaxMem=          0 cpu:       0.0
 (Enter C:\G09W\l101.exe)
 ------
 C5NHF4
 ------
 Symbolic Z-matrix:
 Charge =  0 Multiplicity = 1
 C                     0.09009   0.08603  -1.41303 
 C                     0.09009   1.28437  -0.70059 
 C                     0.09009   1.22827   0.69421 
 N                     0.09009   0.08603   1.39324 
 C                     0.09009  -1.05622   0.69421 
 C                     0.09009  -1.11232  -0.70059 
 H                     0.09009  -1.97432   1.27937 
 F                     0.09009  -2.33106  -1.34795 
 F                     0.09009   0.08603  -2.79303 
 F                     0.09009   2.50311  -1.34795 
 F                     0.09009   2.392     1.43593 
 
 NAtoms=     11 NQM=     11 NQMF=      0 NMic=      0 NMicF=      0 NTot=     11.
                    Isotopes and Nuclear Properties:
 (Nuclear quadrupole moments (NQMom) in fm**2, nuclear magnetic moments (NMagM)
  in nuclear magnetons)

  Atom         1           2           3           4           5           6           7           8           9          10
 IAtWgt=          12          12          12          14          12          12           1          19          19          19
 AtmWgt=  12.0000000  12.0000000  12.0000000  14.0030740  12.0000000  12.0000000   1.0078250  18.9984033  18.9984033  18.9984033
 NucSpn=           0           0           0           2           0           0           1           1           1           1
 AtZEff=   0.0000000   0.0000000   0.0000000   0.0000000   0.0000000   0.0000000   0.0000000   0.0000000   0.0000000   0.0000000
 NQMom=    0.0000000   0.0000000   0.0000000   2.0440000   0.0000000   0.0000000   0.0000000   0.0000000   0.0000000   0.0000000
 NMagM=    0.0000000   0.0000000   0.0000000   0.4037610   0.0000000   0.0000000   2.7928460   2.6288670   2.6288670   2.6288670

  Atom        11
 IAtWgt=          19
 AtmWgt=  18.9984033
 NucSpn=           1
 AtZEff=   0.0000000
 NQMom=    0.0000000
 NMagM=    2.6288670
 Leave Link  101 at Mon Nov 11 12:06:46 2024, MaxMem=   33554432 cpu:       0.0
 (Enter C:\G09W\l103.exe)

 GradGradGradGradGradGradGradGradGradGradGradGradGradGradGradGradGradGrad
 Berny optimization.
 Initialization pass.
                           ----------------------------
                           !    Initial Parameters    !
                           ! (Angstroms and Degrees)  !
 --------------------------                            --------------------------
 ! Name  Definition              Value          Derivative Info.                !
 --------------------------------------------------------------------------------
 ! R1    R(1,2)                  1.3941         estimate D2E/DX2                !
 ! R2    R(1,6)                  1.3941         estimate D2E/DX2                !
 ! R3    R(1,9)                  1.38           estimate D2E/DX2                !
 ! R4    R(2,3)                  1.3959         estimate D2E/DX2                !
 ! R5    R(2,10)                 1.38           estimate D2E/DX2                !
 ! R6    R(3,4)                  1.3392         estimate D2E/DX2                !
 ! R7    R(3,11)                 1.38           estimate D2E/DX2                !
 ! R8    R(4,5)                  1.3392         estimate D2E/DX2                !
 ! R9    R(5,6)                  1.3959         estimate D2E/DX2                !
 ! R10   R(5,7)                  1.0887         estimate D2E/DX2                !
 ! R11   R(6,8)                  1.38           estimate D2E/DX2                !
 ! A1    A(2,1,6)              118.5351         estimate D2E/DX2                !
 ! A2    A(2,1,9)              120.7324         estimate D2E/DX2                !
 ! A3    A(6,1,9)              120.7324         estimate D2E/DX2                !
 ! A4    A(1,2,3)              118.4291         estimate D2E/DX2                !
 ! A5    A(1,2,10)             121.2914         estimate D2E/DX2                !
 ! A6    A(3,2,10)             120.2795         estimate D2E/DX2                !
 ! A7    A(2,3,4)              123.769          estimate D2E/DX2                !
 ! A8    A(2,3,11)             120.2087         estimate D2E/DX2                !
 ! A9    A(4,3,11)             116.0222         estimate D2E/DX2                !
 ! A10   A(3,4,5)              117.0685         estimate D2E/DX2                !
 ! A11   A(4,5,6)              123.769          estimate D2E/DX2                !
 ! A12   A(4,5,7)              116.0222         estimate D2E/DX2                !
 ! A13   A(6,5,7)              120.2087         estimate D2E/DX2                !
 ! A14   A(1,6,5)              118.4291         estimate D2E/DX2                !
 ! A15   A(1,6,8)              121.2914         estimate D2E/DX2                !
 ! A16   A(5,6,8)              120.2795         estimate D2E/DX2                !
 ! D1    D(6,1,2,3)              0.0            estimate D2E/DX2                !
 ! D2    D(6,1,2,10)           180.0            estimate D2E/DX2                !
 ! D3    D(9,1,2,3)            180.0            estimate D2E/DX2                !
 ! D4    D(9,1,2,10)             0.0            estimate D2E/DX2                !
 ! D5    D(2,1,6,5)              0.0            estimate D2E/DX2                !
 ! D6    D(2,1,6,8)            180.0            estimate D2E/DX2                !
 ! D7    D(9,1,6,5)            180.0            estimate D2E/DX2                !
 ! D8    D(9,1,6,8)              0.0            estimate D2E/DX2                !
 ! D9    D(1,2,3,4)              0.0            estimate D2E/DX2                !
 ! D10   D(1,2,3,11)           180.0            estimate D2E/DX2                !
 ! D11   D(10,2,3,4)           180.0            estimate D2E/DX2                !
 ! D12   D(10,2,3,11)            0.0            estimate D2E/DX2                !
 ! D13   D(2,3,4,5)              0.0            estimate D2E/DX2                !
 ! D14   D(11,3,4,5)           180.0            estimate D2E/DX2                !
 ! D15   D(3,4,5,6)              0.0            estimate D2E/DX2                !
 ! D16   D(3,4,5,7)            180.0            estimate D2E/DX2                !
 ! D17   D(4,5,6,1)              0.0            estimate D2E/DX2                !
 ! D18   D(4,5,6,8)            180.0            estimate D2E/DX2                !
 ! D19   D(7,5,6,1)            180.0            estimate D2E/DX2                !
 ! D20   D(7,5,6,8)              0.0            estimate D2E/DX2                !
 --------------------------------------------------------------------------------
 Trust Radius=3.00D-01 FncErr=1.00D-07 GrdErr=1.00D-06
 Number of steps in this run=  57 maximum allowed number of steps= 100.
 GradGradGradGradGradGradGradGradGradGradGradGradGradGradGradGradGradGrad

 Leave Link  103 at Mon Nov 11 12:06:46 2024, MaxMem=   33554432 cpu:       0.0
 (Enter C:\G09W\l202.exe)
                          Input orientation:                          
 ---------------------------------------------------------------------
 Center     Atomic      Atomic             Coordinates (Angstroms)
 Number     Number       Type             X           Y           Z
 ---------------------------------------------------------------------
      1          6           0        0.090091    0.086025   -1.413030
      2          6           0        0.090091    1.284372   -0.700586
      3          6           0        0.090091    1.228271    0.694210
      4          7           0        0.090091    0.086025    1.393240
      5          6           0        0.090091   -1.056221    0.694210
      6          6           0        0.090091   -1.112322   -0.700586
      7          1           0        0.090091   -1.974319    1.279374
      8          9           0        0.090091   -2.331058   -1.347951
      9          9           0        0.090091    0.086025   -2.793030
     10          9           0        0.090091    2.503109   -1.347951
     11          9           0        0.090091    2.391996    1.435928
 ---------------------------------------------------------------------
                    Distance matrix (angstroms):
                    1          2          3          4          5
     1  C    0.000000
     2  C    1.394135   0.000000
     3  C    2.396912   1.395924   0.000000
     4  N    2.806270   2.412497   1.339167   0.000000
     5  C    2.396912   2.724671   2.284492   1.339167   0.000000
     6  C    1.394135   2.396694   2.724671   2.412497   1.395924
     7  H    3.390289   3.813045   3.255610   2.063488   1.088724
     8  F    2.417960   3.672931   4.103565   3.654644   2.407412
     9  F    1.380000   2.411298   3.669546   4.186270   3.669546
    10  F    2.417960   1.380000   2.407412   3.654644   4.103565
    11  F    3.665250   2.406558   1.380000   2.306366   3.527087
                    6          7          8          9         10
     6  C    0.000000
     7  H    2.159463   0.000000
     8  F    1.380000   2.651433   0.000000
     9  F    2.411298   4.563934   2.816123   0.000000
    10  F    3.672931   5.191358   4.834167   2.816123   0.000000
    11  F    4.104258   4.369120   5.482447   4.816802   2.786095
                   11
    11  F    0.000000
 Stoichiometry    C5HF4N
 Framework group  CS[SG(C5HF4N)]
 Deg. of freedom    19
 Full point group                 CS      NOp   2
 Largest Abelian subgroup         CS      NOp   2
 Largest concise Abelian subgroup C1      NOp   1
                         Standard orientation:                         
 ---------------------------------------------------------------------
 Center     Atomic      Atomic             Coordinates (Angstroms)
 Number     Number       Type             X           Y           Z
 ---------------------------------------------------------------------
      1          6           0        0.953575   -0.252613    0.000000
      2          6           0        0.241131    0.945734    0.000000
      3          6           0       -1.153665    0.889633    0.000000
      4          7           0       -1.852695   -0.252613    0.000000
      5          6           0       -1.153665   -1.394859    0.000000
      6          6           0        0.241131   -1.450960    0.000000
      7          1           0       -1.738829   -2.312957    0.000000
      8          9           0        0.888496   -2.669697    0.000000
      9          9           0        2.333575   -0.252613    0.000000
     10          9           0        0.888496    2.164470    0.000000
     11          9           0       -1.895383    2.053357    0.000000
 ---------------------------------------------------------------------
 Rotational constants (GHZ):      2.0352866      1.1747794      0.7448485
 Leave Link  202 at Mon Nov 11 12:06:46 2024, MaxMem=   33554432 cpu:       0.0
 (Enter C:\G09W\l301.exe)
 Standard basis: 6-31+G (6D, 7F)
 Ernie: Thresh=  0.10000D-02 Tol=  0.10000D-05 Strict=F.
 AO basis set in the form of general basis input (Overlap normalization):
      1 0
 S   6 1.00       0.000000000000
      0.3047524880D+04  0.1834737132D-02
      0.4573695180D+03  0.1403732281D-01
      0.1039486850D+03  0.6884262226D-01
      0.2921015530D+02  0.2321844432D+00
      0.9286662960D+01  0.4679413484D+00
      0.3163926960D+01  0.3623119853D+00
 SP   3 1.00       0.000000000000
      0.7868272350D+01 -0.1193324198D+00  0.6899906659D-01
      0.1881288540D+01 -0.1608541517D+00  0.3164239610D+00
      0.5442492580D+00  0.1143456438D+01  0.7443082909D+00
 SP   1 1.00       0.000000000000
      0.1687144782D+00  0.1000000000D+01  0.1000000000D+01
 SP   1 1.00       0.000000000000
      0.4380000000D-01  0.1000000000D+01  0.1000000000D+01
 ****
      2 0
 S   6 1.00       0.000000000000
      0.3047524880D+04  0.1834737132D-02
      0.4573695180D+03  0.1403732281D-01
      0.1039486850D+03  0.6884262226D-01
      0.2921015530D+02  0.2321844432D+00
      0.9286662960D+01  0.4679413484D+00
      0.3163926960D+01  0.3623119853D+00
 SP   3 1.00       0.000000000000
      0.7868272350D+01 -0.1193324198D+00  0.6899906659D-01
      0.1881288540D+01 -0.1608541517D+00  0.3164239610D+00
      0.5442492580D+00  0.1143456438D+01  0.7443082909D+00
 SP   1 1.00       0.000000000000
      0.1687144782D+00  0.1000000000D+01  0.1000000000D+01
 SP   1 1.00       0.000000000000
      0.4380000000D-01  0.1000000000D+01  0.1000000000D+01
 ****
      3 0
 S   6 1.00       0.000000000000
      0.3047524880D+04  0.1834737132D-02
      0.4573695180D+03  0.1403732281D-01
      0.1039486850D+03  0.6884262226D-01
      0.2921015530D+02  0.2321844432D+00
      0.9286662960D+01  0.4679413484D+00
      0.3163926960D+01  0.3623119853D+00
 SP   3 1.00       0.000000000000
      0.7868272350D+01 -0.1193324198D+00  0.6899906659D-01
      0.1881288540D+01 -0.1608541517D+00  0.3164239610D+00
      0.5442492580D+00  0.1143456438D+01  0.7443082909D+00
 SP   1 1.00       0.000000000000
      0.1687144782D+00  0.1000000000D+01  0.1000000000D+01
 SP   1 1.00       0.000000000000
      0.4380000000D-01  0.1000000000D+01  0.1000000000D+01
 ****
      4 0
 S   6 1.00       0.000000000000
      0.4173511460D+04  0.1834772160D-02
      0.6274579110D+03  0.1399462700D-01
      0.1429020930D+03  0.6858655181D-01
      0.4023432930D+02  0.2322408730D+00
      0.1282021290D+02  0.4690699481D+00
      0.4390437010D+01  0.3604551991D+00
 SP   3 1.00       0.000000000000
      0.1162636186D+02 -0.1149611817D+00  0.6757974388D-01
      0.2716279807D+01 -0.1691174786D+00  0.3239072959D+00
      0.7722183966D+00  0.1145851947D+01  0.7408951398D+00
 SP   1 1.00       0.000000000000
      0.2120314975D+00  0.1000000000D+01  0.1000000000D+01
 SP   1 1.00       0.000000000000
      0.6390000000D-01  0.1000000000D+01  0.1000000000D+01
 ****
      5 0
 S   6 1.00       0.000000000000
      0.3047524880D+04  0.1834737132D-02
      0.4573695180D+03  0.1403732281D-01
      0.1039486850D+03  0.6884262226D-01
      0.2921015530D+02  0.2321844432D+00
      0.9286662960D+01  0.4679413484D+00
      0.3163926960D+01  0.3623119853D+00
 SP   3 1.00       0.000000000000
      0.7868272350D+01 -0.1193324198D+00  0.6899906659D-01
      0.1881288540D+01 -0.1608541517D+00  0.3164239610D+00
      0.5442492580D+00  0.1143456438D+01  0.7443082909D+00
 SP   1 1.00       0.000000000000
      0.1687144782D+00  0.1000000000D+01  0.1000000000D+01
 SP   1 1.00       0.000000000000
      0.4380000000D-01  0.1000000000D+01  0.1000000000D+01
 ****
      6 0
 S   6 1.00       0.000000000000
      0.3047524880D+04  0.1834737132D-02
      0.4573695180D+03  0.1403732281D-01
      0.1039486850D+03  0.6884262226D-01
      0.2921015530D+02  0.2321844432D+00
      0.9286662960D+01  0.4679413484D+00
      0.3163926960D+01  0.3623119853D+00
 SP   3 1.00       0.000000000000
      0.7868272350D+01 -0.1193324198D+00  0.6899906659D-01
      0.1881288540D+01 -0.1608541517D+00  0.3164239610D+00
      0.5442492580D+00  0.1143456438D+01  0.7443082909D+00
 SP   1 1.00       0.000000000000
      0.1687144782D+00  0.1000000000D+01  0.1000000000D+01
 SP   1 1.00       0.000000000000
      0.4380000000D-01  0.1000000000D+01  0.1000000000D+01
 ****
      7 0
 S   3 1.00       0.000000000000
      0.1873113696D+02  0.3349460434D-01
      0.2825394365D+01  0.2347269535D+00
      0.6401216923D+00  0.8137573261D+00
 S   1 1.00       0.000000000000
      0.1612777588D+00  0.1000000000D+01
 ****
      8 0
 S   6 1.00       0.000000000000
      0.7001713090D+04  0.1819616901D-02
      0.1051366090D+04  0.1391607961D-01
      0.2392856900D+03  0.6840532453D-01
      0.6739744530D+02  0.2331857601D+00
      0.2151995730D+02  0.4712674392D+00
      0.7403101300D+01  0.3566185462D+00
 SP   3 1.00       0.000000000000
      0.2084795280D+02 -0.1085069751D+00  0.7162872424D-01
      0.4808308340D+01 -0.1464516581D+00  0.3459121027D+00
      0.1344069860D+01  0.1128688581D+01  0.7224699564D+00
 SP   1 1.00       0.000000000000
      0.3581513930D+00  0.1000000000D+01  0.1000000000D+01
 SP   1 1.00       0.000000000000
      0.1076000000D+00  0.1000000000D+01  0.1000000000D+01
 ****
      9 0
 S   6 1.00       0.000000000000
      0.7001713090D+04  0.1819616901D-02
      0.1051366090D+04  0.1391607961D-01
      0.2392856900D+03  0.6840532453D-01
      0.6739744530D+02  0.2331857601D+00
      0.2151995730D+02  0.4712674392D+00
      0.7403101300D+01  0.3566185462D+00
 SP   3 1.00       0.000000000000
      0.2084795280D+02 -0.1085069751D+00  0.7162872424D-01
      0.4808308340D+01 -0.1464516581D+00  0.3459121027D+00
      0.1344069860D+01  0.1128688581D+01  0.7224699564D+00
 SP   1 1.00       0.000000000000
      0.3581513930D+00  0.1000000000D+01  0.1000000000D+01
 SP   1 1.00       0.000000000000
      0.1076000000D+00  0.1000000000D+01  0.1000000000D+01
 ****
     10 0
 S   6 1.00       0.000000000000
      0.7001713090D+04  0.1819616901D-02
      0.1051366090D+04  0.1391607961D-01
      0.2392856900D+03  0.6840532453D-01
      0.6739744530D+02  0.2331857601D+00
      0.2151995730D+02  0.4712674392D+00
      0.7403101300D+01  0.3566185462D+00
 SP   3 1.00       0.000000000000
      0.2084795280D+02 -0.1085069751D+00  0.7162872424D-01
      0.4808308340D+01 -0.1464516581D+00  0.3459121027D+00
      0.1344069860D+01  0.1128688581D+01  0.7224699564D+00
 SP   1 1.00       0.000000000000
      0.3581513930D+00  0.1000000000D+01  0.1000000000D+01
 SP   1 1.00       0.000000000000
      0.1076000000D+00  0.1000000000D+01  0.1000000000D+01
 ****
     11 0
 S   6 1.00       0.000000000000
      0.7001713090D+04  0.1819616901D-02
      0.1051366090D+04  0.1391607961D-01
      0.2392856900D+03  0.6840532453D-01
      0.6739744530D+02  0.2331857601D+00
      0.2151995730D+02  0.4712674392D+00
      0.7403101300D+01  0.3566185462D+00
 SP   3 1.00       0.000000000000
      0.2084795280D+02 -0.1085069751D+00  0.7162872424D-01
      0.4808308340D+01 -0.1464516581D+00  0.3459121027D+00
      0.1344069860D+01  0.1128688581D+01  0.7224699564D+00
 SP   1 1.00       0.000000000000
      0.3581513930D+00  0.1000000000D+01  0.1000000000D+01
 SP   1 1.00       0.000000000000
      0.1076000000D+00  0.1000000000D+01  0.1000000000D+01
 ****

 There are   102 symmetry adapted basis functions of A'  symmetry.
 There are    30 symmetry adapted basis functions of A"  symmetry.
 Integral buffers will be    262144 words long.
 Raffenetti 2 integral format.
 Two-electron integral symmetry is turned on.
   132 basis functions,   264 primitive gaussians,   132 cartesian basis functions
    37 alpha electrons       37 beta electrons
       nuclear repulsion energy       519.8760666348 Hartrees.
 IExCor=  402 DFT=T Ex+Corr=B3LYP ExCW=0 ScaHFX=  0.200000
 ScaDFX=  0.800000  0.720000  1.000000  0.810000 ScalE2=  1.000000  1.000000
 IRadAn=      0 IRanWt=     -1 IRanGd=            0 ICorTp=0
 NAtoms=   11 NActive=   11 NUniq=   11 SFac= 7.50D-01 NAtFMM=   80 NAOKFM=F Big=F
 Leave Link  301 at Mon Nov 11 12:06:46 2024, MaxMem=   33554432 cpu:       0.0
 (Enter C:\G09W\l302.exe)
 NPDir=0 NMtPBC=     1 NCelOv=     1 NCel=       1 NClECP=     1 NCelD=      1
         NCelK=      1 NCelE2=     1 NClLst=     1 CellRange=     0.0.
 One-electron integrals computed using PRISM.
 NBasis=   132 RedAO= T  NBF=   102    30
 NBsUse=   132 1.00D-06 NBFU=   102    30
 Precomputing XC quadrature grid using
 IXCGrd= 2 IRadAn=           0 IRanWt=          -1 IRanGd=           0 AccXCQ= 1.00D-10.
 NRdTot=     708 NPtTot=       90526 NUsed=       93835 NTot=       93851
 NSgBfM=   131   131   131   131   131 NAtAll=    11    11.
 Leave Link  302 at Mon Nov 11 12:06:46 2024, MaxMem=   33554432 cpu:       0.0
 (Enter C:\G09W\l303.exe)
 DipDrv:  MaxL=1.
 Leave Link  303 at Mon Nov 11 12:06:46 2024, MaxMem=   33554432 cpu:       0.0
 (Enter C:\G09W\l401.exe)
 Harris functional with IExCor=  402 diagonalized for initial guess.
 ExpMin= 4.38D-02 ExpMax= 7.00D+03 ExpMxC= 1.05D+03 IAcc=2 IRadAn=         0 AccDes= 0.00D+00
 HarFok:  IExCor=  402 AccDes= 0.00D+00 IRadAn=         0 IDoV= 1
 ScaDFX=  1.000000  1.000000  1.000000  1.000000
 FoFCou: FMM=F IPFlag=           0 FMFlag=      100000 FMFlg1=           0
         NFxFlg=           0 DoJE=T BraDBF=F KetDBF=T FulRan=T
         Omega=  0.000000  0.000000  1.000000  0.000000  0.000000 ICntrl=     500 IOpCl=  0
         NMat0=    1 NMatS0=    1 NMatT0=    0 NMatD0=    1 NMtDS0=    0 NMtDT0=    0
         I1Cent=           4 NGrid=           0.
 Petite list used in FoFCou.
 Harris En= -645.101668341545    
 Initial guess orbital symmetries:
       Occupied  (A') (A') (A') (A') (A') (A') (A') (A') (A') (A')
                 (A') (A') (A') (A') (A') (A') (A') (A') (A') (A')
                 (A') (A') (A') (A') (A") (A') (A") (A") (A") (A')
                 (A') (A') (A") (A') (A') (A") (A")
       Virtual   (A") (A") (A') (A') (A') (A') (A') (A") (A') (A")
                 (A') (A') (A") (A") (A') (A') (A') (A') (A") (A")
                 (A') (A') (A') (A') (A') (A') (A') (A') (A') (A")
                 (A') (A") (A') (A') (A') (A') (A') (A') (A") (A')
                 (A') (A') (A') (A") (A") (A') (A') (A') (A') (A')
                 (A') (A') (A') (A') (A") (A") (A") (A') (A') (A")
                 (A') (A") (A') (A') (A') (A") (A') (A') (A') (A')
                 (A') (A') (A') (A') (A') (A') (A') (A') (A") (A")
                 (A") (A") (A') (A') (A') (A') (A') (A') (A') (A')
                 (A') (A') (A') (A') (A')
 The electronic state of the initial guess is 1-A'.
 Leave Link  401 at Mon Nov 11 12:06:47 2024, MaxMem=   33554432 cpu:       1.0
 (Enter C:\G09W\l502.exe)
 Closed shell SCF:
 Requested convergence on RMS density matrix=1.00D-08 within 128 cycles.
 Requested convergence on MAX density matrix=1.00D-06.
 Requested convergence on             energy=1.00D-06.
 No special actions if energy rises.
 Using DIIS extrapolation, IDIIS=  1040.
 Integral symmetry usage will be decided dynamically.
        93734 words used for storage of precomputed grid.
 IEnd=      165779 IEndB=      165779 NGot=    33554432 MDV=    33422850
 LenX=    33422850 LenY=    33404985
 Fock matrices will be formed incrementally for  20 cycles.

 Cycle   1  Pass 1  IDiag  1:
 FoFCou: FMM=F IPFlag=           0 FMFlag=      100000 FMFlg1=           0
         NFxFlg=           0 DoJE=F BraDBF=F KetDBF=F FulRan=T
         Omega=  0.000000  0.000000  1.000000  0.000000  0.000000 ICntrl=       0 IOpCl=  0
         NMat0=    1 NMatS0=    1 NMatT0=    0 NMatD0=    1 NMtDS0=    0 NMtDT0=    0
         I1Cent=           0 NGrid=           0.
 Petite list used in FoFCou.
 E= -644.980850526552    
 DIIS: error= 2.93D-02 at cycle   1 NSaved=   1.
 NSaved= 1 IEnMin= 1 EnMin= -644.980850526552     IErMin= 1 ErrMin= 2.93D-02
 ErrMax= 2.93D-02 EMaxC= 1.00D-01 BMatC= 1.02D-01 BMatP= 1.02D-01
 IDIUse=3 WtCom= 7.07D-01 WtEn= 2.93D-01
 Coeff-Com:  0.100D+01
 Coeff-En:   0.100D+01
 Coeff:      0.100D+01
 Gap=     0.157 Goal=   None    Shift=    0.000
 GapD=    0.157 DampG=1.000 DampE=0.500 DampFc=0.5000 IDamp=-1.
 Damping current iteration by 5.00D-01
 RMSDP=3.67D-02 MaxDP=1.15D+00              OVMax= 2.90D-01

 Cycle   2  Pass 1  IDiag  1:
 RMSU=  1.16D-02    CP:  1.14D+00
 E= -644.985696761779     Delta-E=       -0.004846235227 Rises=F Damp=T
 DIIS: error= 1.49D-02 at cycle   2 NSaved=   2.
 NSaved= 2 IEnMin= 2 EnMin= -644.985696761779     IErMin= 2 ErrMin= 1.49D-02
 ErrMax= 1.49D-02 EMaxC= 1.00D-01 BMatC= 2.63D-02 BMatP= 1.02D-01
 IDIUse=3 WtCom= 8.51D-01 WtEn= 1.49D-01
 Coeff-Com:  0.300D+00 0.700D+00
 Coeff-En:   0.480D+00 0.520D+00
 Coeff:      0.327D+00 0.673D+00
 Gap=     0.271 Goal=   None    Shift=    0.000
 RMSDP=8.80D-03 MaxDP=1.87D-01 DE=-4.85D-03 OVMax= 1.87D-01

 Cycle   3  Pass 1  IDiag  1:
 RMSU=  6.09D-03    CP:  1.14D+00  1.11D+00
 E= -645.071381345357     Delta-E=       -0.085684583577 Rises=F Damp=F
 DIIS: error= 5.55D-03 at cycle   3 NSaved=   3.
 NSaved= 3 IEnMin= 3 EnMin= -645.071381345357     IErMin= 3 ErrMin= 5.55D-03
 ErrMax= 5.55D-03 EMaxC= 1.00D-01 BMatC= 5.04D-03 BMatP= 2.63D-02
 IDIUse=3 WtCom= 9.44D-01 WtEn= 5.55D-02
 Coeff-Com:  0.903D-01 0.302D+00 0.608D+00
 Coeff-En:   0.000D+00 0.000D+00 0.100D+01
 Coeff:      0.853D-01 0.285D+00 0.629D+00
 Gap=     0.227 Goal=   None    Shift=    0.000
 RMSDP=2.26D-03 MaxDP=6.38D-02 DE=-8.57D-02 OVMax= 3.46D-02

 Cycle   4  Pass 1  IDiag  1:
 RMSU=  1.07D-03    CP:  1.14D+00  1.17D+00  8.43D-01
 E= -645.074592740310     Delta-E=       -0.003211394953 Rises=F Damp=F
 DIIS: error= 2.98D-03 at cycle   4 NSaved=   4.
 NSaved= 4 IEnMin= 4 EnMin= -645.074592740310     IErMin= 4 ErrMin= 2.98D-03
 ErrMax= 2.98D-03 EMaxC= 1.00D-01 BMatC= 1.88D-03 BMatP= 5.04D-03
 IDIUse=3 WtCom= 9.70D-01 WtEn= 2.98D-02
 Coeff-Com:  0.132D-01 0.745D-01 0.387D+00 0.526D+00
 Coeff-En:   0.000D+00 0.000D+00 0.267D+00 0.733D+00
 Coeff:      0.128D-01 0.723D-01 0.383D+00 0.532D+00
 Gap=     0.224 Goal=   None    Shift=    0.000
 RMSDP=1.01D-03 MaxDP=3.32D-02 DE=-3.21D-03 OVMax= 1.22D-02

 Cycle   5  Pass 1  IDiag  1:
 RMSU=  3.60D-04    CP:  1.13D+00  1.13D+00  8.96D-01  8.70D-01
 E= -645.076026568548     Delta-E=       -0.001433828238 Rises=F Damp=F
 DIIS: error= 8.40D-04 at cycle   5 NSaved=   5.
 NSaved= 5 IEnMin= 5 EnMin= -645.076026568548     IErMin= 5 ErrMin= 8.40D-04
 ErrMax= 8.40D-04 EMaxC= 1.00D-01 BMatC= 1.22D-04 BMatP= 1.88D-03
 IDIUse=3 WtCom= 9.92D-01 WtEn= 8.40D-03
 Coeff-Com:  0.148D-02 0.102D-01 0.146D+00 0.292D+00 0.550D+00
 Coeff-En:   0.000D+00 0.000D+00 0.000D+00 0.000D+00 0.100D+01
 Coeff:      0.146D-02 0.101D-01 0.144D+00 0.290D+00 0.554D+00
 Gap=     0.225 Goal=   None    Shift=    0.000
 RMSDP=4.46D-04 MaxDP=1.22D-02 DE=-1.43D-03 OVMax= 3.34D-03

 Cycle   6  Pass 1  IDiag  1:
 RMSU=  1.43D-04    CP:  1.13D+00  1.12D+00  8.87D-01  8.95D-01  7.58D-01
 E= -645.076137268236     Delta-E=       -0.000110699688 Rises=F Damp=F
 DIIS: error= 2.11D-04 at cycle   6 NSaved=   6.
 NSaved= 6 IEnMin= 6 EnMin= -645.076137268236     IErMin= 6 ErrMin= 2.11D-04
 ErrMax= 2.11D-04 EMaxC= 1.00D-01 BMatC= 8.82D-06 BMatP= 1.22D-04
 IDIUse=3 WtCom= 9.98D-01 WtEn= 2.11D-03
 Coeff-Com:  0.123D-03 0.703D-03 0.559D-01 0.123D+00 0.309D+00 0.511D+00
 Coeff-En:   0.000D+00 0.000D+00 0.000D+00 0.000D+00 0.000D+00 0.100D+01
 Coeff:      0.123D-03 0.702D-03 0.558D-01 0.123D+00 0.308D+00 0.512D+00
 Gap=     0.225 Goal=   None    Shift=    0.000
 RMSDP=5.59D-05 MaxDP=8.85D-04 DE=-1.11D-04 OVMax= 1.10D-03

 Cycle   7  Pass 1  IDiag  1:
 RMSU=  2.85D-05    CP:  1.13D+00  1.12D+00  8.89D-01  8.90D-01  7.74D-01
                    CP:  8.55D-01
 E= -645.076145462562     Delta-E=       -0.000008194327 Rises=F Damp=F
 DIIS: error= 4.79D-05 at cycle   7 NSaved=   7.
 NSaved= 7 IEnMin= 7 EnMin= -645.076145462562     IErMin= 7 ErrMin= 4.79D-05
 ErrMax= 4.79D-05 EMaxC= 1.00D-01 BMatC= 4.24D-07 BMatP= 8.82D-06
 IDIUse=1 WtCom= 1.00D+00 WtEn= 0.00D+00
 Coeff-Com:  0.273D-04-0.153D-02 0.566D-04 0.241D-02 0.489D-01 0.196D+00
 Coeff-Com:  0.754D+00
 Coeff:      0.273D-04-0.153D-02 0.566D-04 0.241D-02 0.489D-01 0.196D+00
 Coeff:      0.754D+00
 Gap=     0.225 Goal=   None    Shift=    0.000
 RMSDP=2.33D-05 MaxDP=5.93D-04 DE=-8.19D-06 OVMax= 3.45D-04

 Cycle   8  Pass 1  IDiag  1:
 RMSU=  8.01D-06    CP:  1.13D+00  1.12D+00  8.90D-01  8.90D-01  7.78D-01
                    CP:  8.48D-01  7.84D-01
 E= -645.076145907630     Delta-E=       -0.000000445068 Rises=F Damp=F
 DIIS: error= 1.97D-05 at cycle   8 NSaved=   8.
 NSaved= 8 IEnMin= 8 EnMin= -645.076145907630     IErMin= 8 ErrMin= 1.97D-05
 ErrMax= 1.97D-05 EMaxC= 1.00D-01 BMatC= 4.51D-08 BMatP= 4.24D-07
 IDIUse=1 WtCom= 1.00D+00 WtEn= 0.00D+00
 Coeff-Com:  0.571D-04-0.939D-03-0.692D-03-0.485D-03 0.219D-01 0.961D-01
 Coeff-Com:  0.413D+00 0.471D+00
 Coeff:      0.571D-04-0.939D-03-0.692D-03-0.485D-03 0.219D-01 0.961D-01
 Coeff:      0.413D+00 0.471D+00
 Gap=     0.225 Goal=   None    Shift=    0.000
 RMSDP=5.18D-06 MaxDP=1.34D-04 DE=-4.45D-07 OVMax= 1.30D-04

 Cycle   9  Pass 1  IDiag  1:
 RMSU=  1.94D-06    CP:  1.13D+00  1.12D+00  8.90D-01  8.89D-01  7.81D-01
                    CP:  8.47D-01  8.29D-01  9.27D-01
 E= -645.076145949480     Delta-E=       -0.000000041850 Rises=F Damp=F
 DIIS: error= 6.80D-06 at cycle   9 NSaved=   9.
 NSaved= 9 IEnMin= 9 EnMin= -645.076145949480     IErMin= 9 ErrMin= 6.80D-06
 ErrMax= 6.80D-06 EMaxC= 1.00D-01 BMatC= 5.07D-09 BMatP= 4.51D-08
 IDIUse=1 WtCom= 1.00D+00 WtEn= 0.00D+00
 Coeff-Com:  0.579D-04-0.572D-04-0.479D-03-0.149D-02-0.660D-02-0.190D-01
 Coeff-Com: -0.369D-01 0.219D+00 0.845D+00
 Coeff:      0.579D-04-0.572D-04-0.479D-03-0.149D-02-0.660D-02-0.190D-01
 Coeff:     -0.369D-01 0.219D+00 0.845D+00
 Gap=     0.225 Goal=   None    Shift=    0.000
 RMSDP=2.33D-06 MaxDP=5.07D-05 DE=-4.18D-08 OVMax= 5.20D-05

 Cycle  10  Pass 1  IDiag  1:
 RMSU=  9.12D-07    CP:  1.13D+00  1.12D+00  8.91D-01  8.89D-01  7.81D-01
                    CP:  8.47D-01  8.27D-01  9.86D-01  9.26D-01
 E= -645.076145955921     Delta-E=       -0.000000006441 Rises=F Damp=F
 DIIS: error= 1.33D-06 at cycle  10 NSaved=  10.
 NSaved=10 IEnMin=10 EnMin= -645.076145955921     IErMin=10 ErrMin= 1.33D-06
 ErrMax= 1.33D-06 EMaxC= 1.00D-01 BMatC= 2.49D-10 BMatP= 5.07D-09
 IDIUse=1 WtCom= 1.00D+00 WtEn= 0.00D+00
 Coeff-Com:  0.285D-04-0.154D-04-0.201D-03-0.639D-03-0.350D-02-0.108D-01
 Coeff-Com: -0.260D-01 0.101D+00 0.423D+00 0.517D+00
 Coeff:      0.285D-04-0.154D-04-0.201D-03-0.639D-03-0.350D-02-0.108D-01
 Coeff:     -0.260D-01 0.101D+00 0.423D+00 0.517D+00
 Gap=     0.225 Goal=   None    Shift=    0.000
 RMSDP=6.16D-07 MaxDP=1.91D-05 DE=-6.44D-09 OVMax= 8.08D-06

 Cycle  11  Pass 1  IDiag  1:
 RMSU=  2.04D-07    CP:  1.13D+00  1.12D+00  8.91D-01  8.89D-01  7.81D-01
                    CP:  8.48D-01  8.29D-01  9.89D-01  9.12D-01  8.19D-01
 E= -645.076145956113     Delta-E=       -0.000000000193 Rises=F Damp=F
 DIIS: error= 5.35D-07 at cycle  11 NSaved=  11.
 NSaved=11 IEnMin=11 EnMin= -645.076145956113     IErMin=11 ErrMin= 5.35D-07
 ErrMax= 5.35D-07 EMaxC= 1.00D-01 BMatC= 4.71D-11 BMatP= 2.49D-10
 IDIUse=1 WtCom= 1.00D+00 WtEn= 0.00D+00
 Coeff-Com:  0.292D-05 0.771D-05-0.107D-04-0.404D-04-0.671D-03-0.228D-02
 Coeff-Com: -0.788D-02 0.856D-02 0.490D-01 0.307D+00 0.647D+00
 Coeff:      0.292D-05 0.771D-05-0.107D-04-0.404D-04-0.671D-03-0.228D-02
 Coeff:     -0.788D-02 0.856D-02 0.490D-01 0.307D+00 0.647D+00
 Gap=     0.225 Goal=   None    Shift=    0.000
 RMSDP=1.51D-07 MaxDP=4.01D-06 DE=-1.93D-10 OVMax= 2.89D-06

 Cycle  12  Pass 1  IDiag  1:
 RMSU=  6.28D-08    CP:  1.13D+00  1.12D+00  8.91D-01  8.89D-01  7.81D-01
                    CP:  8.47D-01  8.29D-01  9.91D-01  9.18D-01  8.40D-01
                    CP:  8.67D-01
 E= -645.076145956157     Delta-E=       -0.000000000043 Rises=F Damp=F
 DIIS: error= 5.81D-08 at cycle  12 NSaved=  12.
 NSaved=12 IEnMin=12 EnMin= -645.076145956157     IErMin=12 ErrMin= 5.81D-08
 ErrMax= 5.81D-08 EMaxC= 1.00D-01 BMatC= 3.50D-13 BMatP= 4.71D-11
 IDIUse=1 WtCom= 1.00D+00 WtEn= 0.00D+00
 Coeff-Com: -0.759D-06 0.135D-05 0.790D-05 0.202D-04 0.816D-04 0.192D-03
 Coeff-Com:  0.381D-03-0.253D-02-0.139D-01 0.252D-01 0.634D-01 0.927D+00
 Coeff:     -0.759D-06 0.135D-05 0.790D-05 0.202D-04 0.816D-04 0.192D-03
 Coeff:      0.381D-03-0.253D-02-0.139D-01 0.252D-01 0.634D-01 0.927D+00
 Gap=     0.225 Goal=   None    Shift=    0.000
 RMSDP=3.40D-08 MaxDP=1.12D-06 DE=-4.34D-11 OVMax= 5.18D-07

 Cycle  13  Pass 1  IDiag  1:
 RMSU=  1.09D-08    CP:  1.13D+00  1.12D+00  8.91D-01  8.89D-01  7.81D-01
                    CP:  8.47D-01  8.29D-01  9.90D-01  9.16D-01  8.45D-01
                    CP:  8.66D-01  1.06D+00
 E= -645.076145956153     Delta-E=        0.000000000003 Rises=F Damp=F
 DIIS: error= 3.82D-08 at cycle  13 NSaved=  13.
 NSaved=13 IEnMin=12 EnMin= -645.076145956157     IErMin=13 ErrMin= 3.82D-08
 ErrMax= 3.82D-08 EMaxC= 1.00D-01 BMatC= 2.07D-13 BMatP= 3.50D-13
 IDIUse=1 WtCom= 1.00D+00 WtEn= 0.00D+00
 Coeff-Com: -0.512D-06 0.467D-06 0.442D-05 0.110D-04 0.664D-04 0.174D-03
 Coeff-Com:  0.493D-03-0.163D-02-0.940D-02-0.176D-02-0.154D-02 0.575D+00
 Coeff-Com:  0.438D+00
 Coeff:     -0.512D-06 0.467D-06 0.442D-05 0.110D-04 0.664D-04 0.174D-03
 Coeff:      0.493D-03-0.163D-02-0.940D-02-0.176D-02-0.154D-02 0.575D+00
 Coeff:      0.438D+00
 Gap=     0.225 Goal=   None    Shift=    0.000
 RMSDP=7.44D-09 MaxDP=1.62D-07 DE= 3.18D-12 OVMax= 2.00D-07

 SCF Done:  E(RB3LYP) =  -645.076145956     A.U. after   13 cycles
             Convg  =    0.7437D-08             -V/T =  2.0054
 KE= 6.415906666779D+02 PE=-2.560492890333D+03 EE= 7.539500110642D+02
 Leave Link  502 at Mon Nov 11 12:07:06 2024, MaxMem=   33554432 cpu:      19.0
 (Enter C:\G09W\l601.exe)
 Copying SCF densities to generalized density rwf, IOpCl= 0 IROHF=0.

 **********************************************************************

            Population analysis using the SCF density.

 **********************************************************************

 Orbital symmetries:
       Occupied  (A') (A') (A') (A') (A') (A') (A') (A') (A') (A')
                 (A') (A') (A') (A') (A') (A') (A') (A') (A') (A')
                 (A') (A') (A') (A') (A") (A") (A') (A") (A") (A')
                 (A') (A') (A') (A") (A") (A') (A")
       Virtual   (A") (A") (A') (A') (A') (A") (A') (A') (A') (A')
                 (A") (A') (A") (A") (A') (A') (A') (A") (A") (A')
                 (A') (A') (A') (A') (A') (A') (A') (A') (A') (A")
                 (A") (A') (A') (A') (A') (A') (A') (A") (A') (A')
                 (A') (A") (A') (A') (A") (A') (A') (A') (A') (A')
                 (A') (A') (A') (A') (A") (A") (A") (A') (A") (A')
                 (A') (A") (A') (A') (A') (A") (A') (A') (A') (A')
                 (A') (A') (A') (A') (A') (A') (A') (A') (A") (A")
                 (A") (A") (A') (A') (A') (A') (A') (A') (A') (A')
                 (A') (A') (A') (A') (A')
 The electronic state is 1-A'.
 Alpha  occ. eigenvalues --  -24.78053 -24.77359 -24.77281 -24.75913 -14.41712
 Alpha  occ. eigenvalues --  -10.37555 -10.36898 -10.36149 -10.35351 -10.29914
 Alpha  occ. eigenvalues --   -1.29396  -1.28293  -1.27690  -1.26748  -1.04137
 Alpha  occ. eigenvalues --   -0.89699  -0.84107  -0.72844  -0.71543  -0.63257
 Alpha  occ. eigenvalues --   -0.62369  -0.59764  -0.57330  -0.55799  -0.55584
 Alpha  occ. eigenvalues --   -0.51759  -0.51206  -0.50332  -0.48934  -0.47053
 Alpha  occ. eigenvalues --   -0.46910  -0.44725  -0.43578  -0.42882  -0.34310
 Alpha  occ. eigenvalues --   -0.33706  -0.31588
 Alpha virt. eigenvalues --   -0.09123  -0.07327  -0.05835   0.00234   0.00334
 Alpha virt. eigenvalues --    0.03405   0.03501   0.04502   0.05479   0.07004
 Alpha virt. eigenvalues --    0.07020   0.07870   0.07953   0.08713   0.10294
 Alpha virt. eigenvalues --    0.10933   0.11903   0.12523   0.12795   0.12964
 Alpha virt. eigenvalues --    0.13340   0.13652   0.15744   0.16265   0.19552
 Alpha virt. eigenvalues --    0.20345   0.20529   0.21006   0.22025   0.22133
 Alpha virt. eigenvalues --    0.24666   0.25264   0.25827   0.28709   0.29331
 Alpha virt. eigenvalues --    0.30238   0.31675   0.32450   0.32992   0.34027
 Alpha virt. eigenvalues --    0.34915   0.35716   0.35949   0.36594   0.37653
 Alpha virt. eigenvalues --    0.38657   0.39562   0.40269   0.41345   0.48032
 Alpha virt. eigenvalues --    0.49751   0.50624   0.54568   0.55467   0.58403
 Alpha virt. eigenvalues --    0.64695   0.66003   0.67636   0.69469   0.70092
 Alpha virt. eigenvalues --    0.76937   0.79806   0.81946   0.89944   0.91665
 Alpha virt. eigenvalues --    0.96436   0.97730   1.03304   1.03683   1.07927
 Alpha virt. eigenvalues --    1.13306   1.16420   1.20281   1.23260   1.24761
 Alpha virt. eigenvalues --    1.25614   1.36987   1.40933   1.48539   1.52556
 Alpha virt. eigenvalues --    1.54273   1.57647   1.63679   1.67008   1.67571
 Alpha virt. eigenvalues --    1.69484   1.71907   1.78563   1.80158   1.80370
 Alpha virt. eigenvalues --    1.81544   2.19289   2.30104   2.42926   2.69146
     Molecular Orbital Coefficients:
                          33        34        35        36        37
                           O         O         O         O         O
     Eigenvalues --    -0.43578  -0.42882  -0.34310  -0.33706  -0.31588
   1 1   C  1S          0.00372   0.00000   0.00000  -0.01292   0.00000
   2        2S         -0.00689   0.00000   0.00000   0.02555   0.00000
   3        2PX         0.00838   0.00000   0.00000  -0.01404   0.00000
   4        2PY        -0.23851   0.00000   0.00000  -0.02511   0.00000
   5        2PZ         0.00000  -0.07426   0.35353   0.00000  -0.04177
   6        3S         -0.02939   0.00000   0.00000   0.13761   0.00000
   7        3PX         0.02076   0.00000   0.00000  -0.09568   0.00000
   8        3PY        -0.04039   0.00000   0.00000  -0.00716   0.00000
   9        3PZ         0.00000  -0.04976   0.21246   0.00000  -0.02753
  10        4S         -0.08403   0.00000   0.00000   0.13387   0.00000
  11        4PX         0.00843   0.00000   0.00000  -0.05883   0.00000
  12        4PY        -0.00606   0.00000   0.00000  -0.06481   0.00000
  13        4PZ         0.00000  -0.01584  -0.00860   0.00000  -0.00114
  14 2   C  1S          0.00888   0.00000   0.00000   0.03105   0.00000
  15        2S         -0.01872   0.00000   0.00000  -0.06079   0.00000
  16        2PX        -0.18003   0.00000   0.00000   0.11259   0.00000
  17        2PY         0.12105   0.00000   0.00000  -0.01240   0.00000
  18        2PZ         0.00000  -0.07140   0.25726   0.00000   0.26562
  19        3S         -0.03491   0.00000   0.00000  -0.33323   0.00000
  20        3PX        -0.01473   0.00000   0.00000   0.14529   0.00000
  21        3PY         0.01753   0.00000   0.00000   0.06900   0.00000
  22        3PZ         0.00000  -0.04107   0.16040   0.00000   0.17244
  23        4S         -0.03779   0.00000   0.00000  -0.27903   0.00000
  24        4PX         0.06420   0.00000   0.00000   0.13371   0.00000
  25        4PY        -0.03299   0.00000   0.00000  -0.04843   0.00000
  26        4PZ         0.00000   0.00774   0.05132   0.00000   0.01952
  27 3   C  1S         -0.02351   0.00000   0.00000  -0.01871   0.00000
  28        2S          0.04887   0.00000   0.00000   0.04633   0.00000
  29        2PX         0.13293   0.00000   0.00000  -0.10231   0.00000
  30        2PY         0.01687   0.00000   0.00000  -0.14983   0.00000
  31        2PZ         0.00000  -0.11277  -0.03319   0.00000   0.31611
  32        3S          0.14559   0.00000   0.00000   0.14019   0.00000
  33        3PX         0.00745   0.00000   0.00000   0.19193   0.00000
  34        3PY        -0.04661   0.00000   0.00000  -0.19694   0.00000
  35        3PZ         0.00000  -0.05914  -0.01910   0.00000   0.18764
  36        4S          0.14572   0.00000   0.00000   0.30554   0.00000
  37        4PX         0.01511   0.00000   0.00000   0.13357   0.00000
  38        4PY        -0.00395   0.00000   0.00000   0.03926   0.00000
  39        4PZ         0.00000  -0.02415  -0.03381   0.00000   0.02909
  40 4   N  1S          0.00913   0.00000   0.00000   0.08257   0.00000
  41        2S         -0.01704   0.00000   0.00000  -0.17656   0.00000
  42        2PX        -0.02263   0.00000   0.00000   0.51494   0.00000
  43        2PY        -0.07361   0.00000   0.00000   0.01744   0.00000
  44        2PZ         0.00000  -0.31321  -0.29568   0.00000   0.07211
  45        3S         -0.08741   0.00000   0.00000  -0.36114   0.00000
  46        3PX        -0.02990   0.00000   0.00000   0.24389   0.00000
  47        3PY        -0.04620   0.00000   0.00000   0.02093   0.00000
  48        3PZ         0.00000  -0.19222  -0.20694   0.00000   0.05580
  49        4S         -0.04446   0.00000   0.00000  -0.22302   0.00000
  50        4PX        -0.00309   0.00000   0.00000  -0.03625   0.00000
  51        4PY         0.00394   0.00000   0.00000  -0.01460   0.00000
  52        4PZ         0.00000   0.00694   0.01336   0.00000   0.00517
  53 5   C  1S          0.01313   0.00000   0.00000  -0.02715   0.00000
  54        2S         -0.02562   0.00000   0.00000   0.05175   0.00000
  55        2PX        -0.11940   0.00000   0.00000  -0.15288   0.00000
  56        2PY         0.00241   0.00000   0.00000   0.03484   0.00000
  57        2PZ         0.00000  -0.25810  -0.12655   0.00000  -0.27732
  58        3S         -0.09264   0.00000   0.00000   0.21592   0.00000
  59        3PX        -0.08311   0.00000   0.00000   0.07628   0.00000
  60        3PY        -0.00617   0.00000   0.00000   0.05217   0.00000
  61        3PZ         0.00000  -0.15105  -0.08087   0.00000  -0.18126
  62        4S         -0.13082   0.00000   0.00000   0.37870   0.00000
  63        4PX        -0.03511   0.00000   0.00000   0.08210   0.00000
  64        4PY        -0.00183   0.00000   0.00000   0.04478   0.00000
  65        4PZ         0.00000  -0.01378  -0.04773   0.00000  -0.02971
  66 6   C  1S         -0.01667   0.00000   0.00000   0.03573   0.00000
  67        2S          0.03342   0.00000   0.00000  -0.07405   0.00000
  68        2PX         0.13611   0.00000   0.00000   0.16005   0.00000
  69        2PY         0.11366   0.00000   0.00000   0.01558   0.00000
  70        2PZ         0.00000  -0.10955   0.17703   0.00000  -0.30518
  71        3S          0.13306   0.00000   0.00000  -0.30517   0.00000
  72        3PX        -0.02499   0.00000   0.00000   0.13362   0.00000
  73        3PY         0.03427   0.00000   0.00000  -0.02771   0.00000
  74        3PZ         0.00000  -0.04946   0.11431   0.00000  -0.18996
  75        4S          0.13722   0.00000   0.00000  -0.50974   0.00000
  76        4PX        -0.04901   0.00000   0.00000   0.05165   0.00000
  77        4PY        -0.00468   0.00000   0.00000  -0.06768   0.00000
  78        4PZ         0.00000  -0.00112   0.05117   0.00000  -0.02172
  79 7   H  1S          0.02890   0.00000   0.00000   0.11399   0.00000
  80        2S          0.02095   0.00000   0.00000   0.15902   0.00000
  81 8   F  1S         -0.00084   0.00000   0.00000  -0.00240   0.00000
  82        2S          0.00265   0.00000   0.00000   0.00526   0.00000
  83        2PX        -0.22618   0.00000   0.00000  -0.09831   0.00000
  84        2PY        -0.17222   0.00000   0.00000   0.01567   0.00000
  85        2PZ         0.00000   0.24145  -0.13837   0.00000   0.21426
  86        3S         -0.00106   0.00000   0.00000   0.01572   0.00000
  87        3PX        -0.14474   0.00000   0.00000  -0.07326   0.00000
  88        3PY        -0.11265   0.00000   0.00000   0.01185   0.00000
  89        3PZ         0.00000   0.15825  -0.09641   0.00000   0.15173
  90        4S          0.00413   0.00000   0.00000   0.00228   0.00000
  91        4PX        -0.02322   0.00000   0.00000  -0.01910   0.00000
  92        4PY        -0.01539   0.00000   0.00000   0.00057   0.00000
  93        4PZ         0.00000   0.04326  -0.04007   0.00000   0.05052
  94 9   F  1S          0.00009   0.00000   0.00000   0.00112   0.00000
  95        2S          0.00018   0.00000   0.00000  -0.00470   0.00000
  96        2PX        -0.01279   0.00000   0.00000   0.03528   0.00000
  97        2PY         0.31522   0.00000   0.00000   0.01883   0.00000
  98        2PZ         0.00000   0.13105  -0.27170   0.00000   0.02740
  99        3S         -0.00199   0.00000   0.00000   0.00588   0.00000
 100        3PX        -0.00727   0.00000   0.00000   0.01906   0.00000
 101        3PY         0.20662   0.00000   0.00000   0.01252   0.00000
 102        3PZ         0.00000   0.08694  -0.18992   0.00000   0.01983
 103        4S         -0.00510   0.00000   0.00000   0.02013   0.00000
 104        4PX         0.00104   0.00000   0.00000   0.00179   0.00000
 105        4PY         0.03118   0.00000   0.00000   0.00219   0.00000
 106        4PZ         0.00000   0.03183  -0.06335   0.00000   0.00604
 107 10  F  1S          0.00015   0.00000   0.00000  -0.00418   0.00000
 108        2S         -0.00061   0.00000   0.00000   0.00957   0.00000
 109        2PX         0.24579   0.00000   0.00000  -0.10653   0.00000
 110        2PY        -0.17180   0.00000   0.00000  -0.03527   0.00000
 111        2PZ         0.00000   0.13210  -0.20622   0.00000  -0.18082
 112        3S          0.00309   0.00000   0.00000   0.02229   0.00000
 113        3PX         0.15990   0.00000   0.00000  -0.07777   0.00000
 114        3PY        -0.11305   0.00000   0.00000  -0.02433   0.00000
 115        3PZ         0.00000   0.08692  -0.14366   0.00000  -0.12826
 116        4S          0.00228   0.00000   0.00000  -0.03371   0.00000
 117        4PX         0.02276   0.00000   0.00000  -0.00902   0.00000
 118        4PY        -0.01633   0.00000   0.00000   0.01348   0.00000
 119        4PZ         0.00000   0.02995  -0.05294   0.00000  -0.04723
 120 11  F  1S         -0.00210   0.00000   0.00000  -0.00782   0.00000
 121        2S          0.00548   0.00000   0.00000   0.00825   0.00000
 122        2PX        -0.26758   0.00000   0.00000   0.05652   0.00000
 123        2PY        -0.10136   0.00000   0.00000  -0.07964   0.00000
 124        2PZ         0.00000   0.35046   0.03700   0.00000  -0.23003
 125        3S          0.00266   0.00000   0.00000   0.09134   0.00000
 126        3PX        -0.17157   0.00000   0.00000   0.06037   0.00000
 127        3PY        -0.06348   0.00000   0.00000  -0.09117   0.00000
 128        3PZ         0.00000   0.22933   0.02498   0.00000  -0.16076
 129        4S         -0.00056   0.00000   0.00000   0.15272   0.00000
 130        4PX        -0.02337   0.00000   0.00000   0.02531   0.00000
 131        4PY        -0.00800   0.00000   0.00000  -0.06452   0.00000
 132        4PZ         0.00000   0.06062   0.00652   0.00000  -0.05753
                          38        39        40        41        42
                           V         V         V         V         V
     Eigenvalues --    -0.09123  -0.07327  -0.05835   0.00234   0.00334
   1 1   C  1S          0.00000   0.00000  -0.03116   0.02745  -0.00310
   2        2S          0.00000   0.00000   0.04153  -0.07233   0.02199
   3        2PX         0.00000   0.00000   0.25827  -0.05095  -0.06703
   4        2PY         0.00000   0.00000   0.01203   0.02818  -0.02159
   5        2PZ         0.41245  -0.09476   0.00000   0.00000   0.00000
   6        3S          0.00000   0.00000   0.28863  -0.16997  -0.01244
   7        3PX         0.00000   0.00000   0.40412  -0.10443  -0.07894
   8        3PY         0.00000   0.00000   0.02244   0.06229   0.02657
   9        3PZ         0.42228  -0.10300   0.00000   0.00000   0.00000
  10        4S          0.00000   0.00000   0.65110   5.40215  -1.02521
  11        4PX         0.00000   0.00000   0.16403  -0.85729  -0.04001
  12        4PY         0.00000   0.00000  -0.19770  -0.22676  -1.16633
  13        4PZ         0.29694  -0.09658   0.00000   0.00000   0.00000
  14 2   C  1S          0.00000   0.00000  -0.02882   0.02165   0.00070
  15        2S          0.00000   0.00000   0.03883  -0.05375  -0.03243
  16        2PX         0.00000   0.00000   0.12465   0.01040   0.08352
  17        2PY         0.00000   0.00000   0.19057  -0.02041   0.12733
  18        2PZ        -0.25132  -0.30981   0.00000   0.00000   0.00000
  19        3S          0.00000   0.00000   0.30069  -0.29300   0.04986
  20        3PX         0.00000   0.00000   0.20185   0.00537   0.08801
  21        3PY         0.00000   0.00000   0.25023   0.03232   0.20554
  22        3PZ        -0.27323  -0.31826   0.00000   0.00000   0.00000
  23        4S          0.00000   0.00000   0.79385  -2.52790   1.38872
  24        4PX         0.00000   0.00000   0.06219  -0.09945   1.04685
  25        4PY         0.00000   0.00000   0.05039   0.94230  -0.05312
  26        4PZ        -0.24000  -0.13531   0.00000   0.00000   0.00000
  27 3   C  1S          0.00000   0.00000  -0.02119   0.00869  -0.02767
  28        2S          0.00000   0.00000   0.04470  -0.05054   0.02201
  29        2PX         0.00000   0.00000  -0.03620  -0.01501  -0.14644
  30        2PY         0.00000   0.00000   0.09527   0.00329   0.13709
  31        2PZ        -0.16447   0.41206   0.00000   0.00000   0.00000
  32        3S          0.00000   0.00000   0.15909   0.03622   0.30636
  33        3PX         0.00000   0.00000  -0.03936   0.00147  -0.16975
  34        3PY         0.00000   0.00000   0.24800  -0.08676   0.18892
  35        3PZ        -0.16017   0.40899   0.00000   0.00000   0.00000
  36        4S          0.00000   0.00000  -0.18446   1.56770   1.36437
  37        4PX         0.00000   0.00000  -0.08246  -0.14415  -0.18602
  38        4PY         0.00000   0.00000   0.13755  -0.63449   0.54884
  39        4PZ         0.04878   0.19630   0.00000   0.00000   0.00000
  40 4   N  1S          0.00000   0.00000  -0.00469   0.02579   0.03299
  41        2S          0.00000   0.00000   0.01095  -0.07132  -0.07413
  42        2PX         0.00000   0.00000   0.11111   0.00452   0.00784
  43        2PY         0.00000   0.00000  -0.01491  -0.00531   0.04793
  44        2PZ         0.37920  -0.06967   0.00000   0.00000   0.00000
  45        3S          0.00000   0.00000   0.14491  -0.29311  -0.29951
  46        3PX         0.00000   0.00000   0.12883  -0.10911  -0.02325
  47        3PY         0.00000   0.00000  -0.01534   0.02179   0.07448
  48        3PZ         0.38240  -0.06926   0.00000   0.00000   0.00000
  49        4S          0.00000   0.00000   0.11714  -1.48708  -0.26062
  50        4PX         0.00000   0.00000   0.11881   0.25105   0.12051
  51        4PY         0.00000   0.00000   0.02109   0.34213  -0.12587
  52        4PZ         0.14578   0.00705   0.00000   0.00000   0.00000
  53 5   C  1S          0.00000   0.00000  -0.01152   0.03807  -0.03520
  54        2S          0.00000   0.00000   0.03963  -0.12846   0.09332
  55        2PX         0.00000   0.00000   0.00745   0.05353  -0.02145
  56        2PY         0.00000   0.00000   0.01394   0.14100   0.03987
  57        2PZ        -0.28382  -0.28121   0.00000   0.00000   0.00000
  58        3S          0.00000   0.00000   0.05726  -0.15820   0.21037
  59        3PX         0.00000   0.00000   0.05924  -0.02059  -0.07798
  60        3PY         0.00000   0.00000  -0.10206   0.30464   0.09541
  61        3PZ        -0.30844  -0.31558   0.00000   0.00000   0.00000
  62        4S          0.00000   0.00000  -0.30971  -2.22939  -1.21673
  63        4PX         0.00000   0.00000  -0.05648  -1.76684  -0.34674
  64        4PY         0.00000   0.00000   0.15120   0.02918   0.22271
  65        4PZ        -0.14049  -0.30728   0.00000   0.00000   0.00000
  66 6   C  1S          0.00000   0.00000  -0.02739   0.01539   0.03197
  67        2S          0.00000   0.00000   0.04435  -0.05518  -0.03209
  68        2PX         0.00000   0.00000   0.09337  -0.02646  -0.05580
  69        2PY         0.00000   0.00000  -0.14044   0.05776   0.19979
  70        2PZ        -0.09429   0.39934   0.00000   0.00000   0.00000
  71        3S          0.00000   0.00000   0.25568  -0.09294  -0.29788
  72        3PX         0.00000   0.00000   0.20113  -0.03155  -0.12820
  73        3PY         0.00000   0.00000  -0.19983   0.00921   0.28961
  74        3PZ        -0.10373   0.43481   0.00000   0.00000   0.00000
  75        4S          0.00000   0.00000   0.21034   0.77978  -0.23003
  76        4PX         0.00000   0.00000  -0.20491  -1.20042  -1.05221
  77        4PY         0.00000   0.00000  -0.27065  -1.03410   0.54014
  78        4PZ        -0.11304   0.31805   0.00000   0.00000   0.00000
  79 7   H  1S          0.00000   0.00000  -0.05151   0.01840   0.03799
  80        2S          0.00000   0.00000  -0.15922   0.15615   0.09221
  81 8   F  1S          0.00000   0.00000   0.03258  -0.00063  -0.04552
  82        2S          0.00000   0.00000  -0.07249  -0.00908   0.11370
  83        2PX         0.00000   0.00000   0.04553  -0.01736  -0.07773
  84        2PY         0.00000   0.00000  -0.15498   0.07950   0.10651
  85        2PZ         0.04205  -0.13987   0.00000   0.00000   0.00000
  86        3S          0.00000   0.00000  -0.22519   0.04789   0.28068
  87        3PX         0.00000   0.00000   0.06465  -0.02468  -0.09260
  88        3PY         0.00000   0.00000  -0.17485   0.06170   0.14756
  89        3PZ         0.03222  -0.10833   0.00000   0.00000   0.00000
  90        4S          0.00000   0.00000  -0.31445  -0.26000   0.56146
  91        4PX         0.00000   0.00000   0.04416   0.05075  -0.06065
  92        4PY         0.00000   0.00000  -0.11313   0.02766   0.08656
  93        4PZ         0.02359  -0.09655   0.00000   0.00000   0.00000
  94 9   F  1S          0.00000   0.00000   0.04604  -0.00919  -0.01082
  95        2S          0.00000   0.00000  -0.10250   0.01353   0.02749
  96        2PX         0.00000   0.00000   0.22073  -0.07058  -0.02374
  97        2PY         0.00000   0.00000  -0.00894  -0.00659  -0.05196
  98        2PZ        -0.15230   0.03385   0.00000   0.00000   0.00000
  99        3S          0.00000   0.00000  -0.32171   0.10207   0.06431
 100        3PX         0.00000   0.00000   0.25705  -0.07920  -0.03398
 101        3PY         0.00000   0.00000  -0.00681  -0.00858  -0.03080
 102        3PZ        -0.11697   0.02710   0.00000   0.00000   0.00000
 103        4S          0.00000   0.00000  -0.42151  -0.11539   0.13465
 104        4PX         0.00000   0.00000   0.15890   0.02225  -0.02234
 105        4PY         0.00000   0.00000  -0.00385   0.00032  -0.04671
 106        4PZ        -0.08754   0.01780   0.00000   0.00000   0.00000
 107 10  F  1S          0.00000   0.00000   0.04071  -0.00217   0.02622
 108        2S          0.00000   0.00000  -0.09094   0.00054  -0.06521
 109        2PX         0.00000   0.00000   0.07323  -0.01617   0.06100
 110        2PY         0.00000   0.00000   0.18724  -0.04167   0.04190
 111        2PZ         0.09508   0.11191   0.00000   0.00000   0.00000
 112        3S          0.00000   0.00000  -0.27905   0.03263  -0.16227
 113        3PX         0.00000   0.00000   0.09168  -0.01663   0.06401
 114        3PY         0.00000   0.00000   0.21001  -0.03573   0.07738
 115        3PZ         0.07334   0.08769   0.00000   0.00000   0.00000
 116        4S          0.00000   0.00000  -0.35821  -0.09943  -0.36311
 117        4PX         0.00000   0.00000   0.05238   0.00377   0.05092
 118        4PY         0.00000   0.00000   0.12726  -0.02429   0.02708
 119        4PZ         0.06298   0.05600   0.00000   0.00000   0.00000
 120 11  F  1S          0.00000   0.00000   0.02056   0.00651   0.04009
 121        2S          0.00000   0.00000  -0.04325  -0.02598  -0.09843
 122        2PX         0.00000   0.00000  -0.09466   0.02161  -0.07787
 123        2PY         0.00000   0.00000   0.06524  -0.00706   0.10415
 124        2PZ         0.05810  -0.14622   0.00000   0.00000   0.00000
 125        3S          0.00000   0.00000  -0.15404   0.00845  -0.25000
 126        3PX         0.00000   0.00000  -0.09786   0.01715  -0.09295
 127        3PY         0.00000   0.00000   0.09052  -0.01527   0.13874
 128        3PZ         0.04896  -0.11203   0.00000   0.00000   0.00000
 129        4S          0.00000   0.00000  -0.22855  -0.22777  -0.44485
 130        4PX         0.00000   0.00000  -0.07095   0.00237  -0.05285
 131        4PY         0.00000   0.00000   0.05850   0.07722   0.05474
 132        4PZ         0.01514  -0.08641   0.00000   0.00000   0.00000
     Density Matrix:
                           1         2         3         4         5
   1 1   C  1S          2.06044
   2        2S         -0.08648   0.34628
   3        2PX         0.02369  -0.04041   0.32955
   4        2PY         0.00144  -0.00302   0.00147   0.46729
   5        2PZ         0.00000   0.00000   0.00000   0.00000   0.41105
   6        3S         -0.25838   0.32260  -0.06415  -0.00213   0.00000
   7        3PX         0.04642  -0.04894  -0.00024  -0.00196   0.00000
   8        3PY         0.00121  -0.00247  -0.00386   0.11925   0.00000
   9        3PZ         0.00000   0.00000   0.00000   0.00000   0.23634
  10        4S         -0.29204   0.48718   0.12792  -0.02600   0.00000
  11        4PX         0.06734  -0.10354  -0.07145   0.00384   0.00000
  12        4PY         0.00997  -0.01733   0.01330   0.09157   0.00000
  13        4PZ         0.00000   0.00000   0.00000   0.00000   0.01485
  14 2   C  1S          0.01954  -0.04393   0.03592  -0.07826   0.00000
  15        2S         -0.04407   0.08112  -0.06745   0.16328   0.00000
  16        2PX        -0.05133   0.11204  -0.05663   0.18451   0.00000
  17        2PY         0.06877  -0.13664   0.12524  -0.22363   0.00000
  18        2PZ         0.00000   0.00000   0.00000   0.00000   0.24738
  19        3S          0.03501   0.00258  -0.09244   0.15631   0.00000
  20        3PX        -0.00742   0.01278   0.04867   0.02976   0.00000
  21        3PY        -0.03174   0.01775   0.03966  -0.01006   0.00000
  22        3PZ         0.00000   0.00000   0.00000   0.00000   0.13144
  23        4S          0.25220  -0.34190  -0.18730   0.07414   0.00000
  24        4PX        -0.03422   0.03136   0.04925  -0.09021   0.00000
  25        4PY        -0.04134   0.06330   0.01356   0.02107   0.00000
  26        4PZ         0.00000   0.00000   0.00000   0.00000   0.02334
  27 3   C  1S         -0.00560   0.01357  -0.00987   0.01768   0.00000
  28        2S          0.01461  -0.03193   0.02665  -0.04045   0.00000
  29        2PX         0.02073  -0.05061   0.02667  -0.04391   0.00000
  30        2PY         0.00158  -0.00089   0.00121   0.00067   0.00000
  31        2PZ         0.00000   0.00000   0.00000   0.00000  -0.00392
  32        3S         -0.00514  -0.02516   0.08140  -0.07235   0.00000
  33        3PX         0.00082  -0.01285   0.04183  -0.03013   0.00000
  34        3PY         0.01782  -0.02111   0.03234  -0.02411   0.00000
  35        3PZ         0.00000   0.00000   0.00000   0.00000  -0.00854
  36        4S         -0.12679   0.12930   0.10022  -0.21904   0.00000
  37        4PX        -0.03116   0.03059   0.02010  -0.04892   0.00000
  38        4PY         0.00359  -0.00524   0.01619   0.00075   0.00000
  39        4PZ         0.00000   0.00000   0.00000   0.00000  -0.01679
  40 4   N  1S         -0.00116  -0.00060  -0.00271  -0.00249   0.00000
  41        2S          0.00033  -0.00099   0.00659   0.00574   0.00000
  42        2PX         0.00620  -0.01827   0.02844  -0.00510   0.00000
  43        2PY        -0.00187   0.00453  -0.00084  -0.01074   0.00000
  44        2PZ         0.00000   0.00000   0.00000   0.00000  -0.14875
  45        3S          0.02142  -0.01851   0.02649   0.01171   0.00000
  46        3PX         0.00901  -0.01119   0.01593  -0.00465   0.00000
  47        3PY        -0.00229   0.00354   0.00176  -0.01597   0.00000
  48        3PZ         0.00000   0.00000   0.00000   0.00000  -0.11307
  49        4S          0.03212  -0.03117   0.02819   0.00167   0.00000
  50        4PX         0.00843  -0.00602   0.00324  -0.00121   0.00000
  51        4PY        -0.00053   0.00181  -0.00431   0.00205   0.00000
  52        4PZ         0.00000   0.00000   0.00000   0.00000   0.00261
  53 5   C  1S         -0.00496   0.01233  -0.00846  -0.01240   0.00000
  54        2S          0.01332  -0.02969   0.02428   0.02947   0.00000
  55        2PX         0.02257  -0.05519   0.02781   0.05701   0.00000
  56        2PY         0.00554  -0.01563   0.00463   0.01062   0.00000
  57        2PZ         0.00000   0.00000   0.00000   0.00000   0.00176
  58        3S         -0.00869  -0.01661   0.06668   0.04362   0.00000
  59        3PX         0.00796  -0.02529   0.04082   0.04123   0.00000
  60        3PY        -0.01323   0.00690  -0.01102  -0.01014   0.00000
  61        3PZ         0.00000   0.00000   0.00000   0.00000  -0.00657
  62        4S         -0.12336   0.13479   0.09489   0.20018   0.00000
  63        4PX        -0.02613   0.02616   0.02244   0.04596   0.00000
  64        4PY        -0.01217   0.01554  -0.01316   0.00409   0.00000
  65        4PZ         0.00000   0.00000   0.00000   0.00000  -0.02436
  66 6   C  1S          0.01930  -0.04299   0.03543   0.07653   0.00000
  67        2S         -0.04317   0.07862  -0.06646  -0.15845   0.00000
  68        2PX        -0.05369   0.11804  -0.05858  -0.19369   0.00000
  69        2PY        -0.06808   0.13531  -0.12279  -0.22234   0.00000
  70        2PZ         0.00000   0.00000   0.00000   0.00000   0.24467
  71        3S          0.03265   0.00389  -0.08955  -0.14963   0.00000
  72        3PX        -0.00631   0.01264   0.03808  -0.03590   0.00000
  73        3PY         0.03254  -0.01741  -0.04912  -0.01686   0.00000
  74        3PZ         0.00000   0.00000   0.00000   0.00000   0.13080
  75        4S          0.27305  -0.39246  -0.14364  -0.03451   0.00000
  76        4PX        -0.01991   0.01133   0.05942   0.08975   0.00000
  77        4PY         0.05269  -0.08147  -0.00534   0.02734   0.00000
  78        4PZ         0.00000   0.00000   0.00000   0.00000   0.02897
  79 7   H  1S         -0.00917   0.02115  -0.01000  -0.02714   0.00000
  80        2S         -0.01297   0.02473  -0.02019  -0.03655   0.00000
  81 8   F  1S         -0.00205   0.00087   0.00143  -0.00985   0.00000
  82        2S          0.00331  -0.00464  -0.00064   0.02132   0.00000
  83        2PX         0.01199  -0.02194   0.01224   0.03185   0.00000
  84        2PY         0.02162  -0.04043   0.03564   0.09444   0.00000
  85        2PZ         0.00000   0.00000   0.00000   0.00000  -0.09536
  86        3S          0.01136  -0.01235  -0.01578   0.04384   0.00000
  87        3PX         0.00777  -0.01657   0.01510   0.02069   0.00000
  88        3PY         0.01621  -0.02834   0.01584   0.07029   0.00000
  89        3PZ         0.00000   0.00000   0.00000   0.00000  -0.07141
  90        4S          0.00311  -0.00148  -0.01767   0.02091   0.00000
  91        4PX        -0.00125  -0.00045   0.00139   0.00210   0.00000
  92        4PY         0.00003  -0.00301  -0.00095   0.02126   0.00000
  93        4PZ         0.00000   0.00000   0.00000   0.00000  -0.03392
  94 9   F  1S          0.00318   0.00303  -0.02013  -0.00031   0.00000
  95        2S          0.00058  -0.01097   0.03585   0.00057   0.00000
  96        2PX         0.07453  -0.16365  -0.38447  -0.00321   0.00000
  97        2PY        -0.00065   0.00110  -0.00049   0.00295   0.00000
  98        2PZ         0.00000   0.00000   0.00000   0.00000   0.05748
  99        3S         -0.00205  -0.02640   0.04718   0.00189   0.00000
 100        3PX         0.04431  -0.08841  -0.23175  -0.00271   0.00000
 101        3PY        -0.00052   0.00091   0.00009  -0.01217   0.00000
 102        3PZ         0.00000   0.00000   0.00000   0.00000   0.01871
 103        4S          0.03452  -0.04149  -0.02049   0.00179   0.00000
 104        4PX        -0.02094   0.01800  -0.01194  -0.00106   0.00000
 105        4PY        -0.00007   0.00033  -0.00053  -0.01130   0.00000
 106        4PZ         0.00000   0.00000   0.00000   0.00000  -0.03138
 107 10  F  1S         -0.00193   0.00051   0.00165   0.00979   0.00000
 108        2S          0.00311  -0.00411  -0.00122  -0.02112   0.00000
 109        2PX         0.01259  -0.02323   0.01377  -0.03153   0.00000
 110        2PY        -0.02070   0.03810  -0.03504   0.09356   0.00000
 111        2PZ         0.00000   0.00000   0.00000   0.00000  -0.09682
 112        3S          0.01029  -0.01027  -0.01633  -0.04385   0.00000
 113        3PX         0.00843  -0.01778   0.01538  -0.02003   0.00000
 114        3PY        -0.01520   0.02616  -0.01518   0.06956   0.00000
 115        3PZ         0.00000   0.00000   0.00000   0.00000  -0.07268
 116        4S          0.00330  -0.00321  -0.01376  -0.02513   0.00000
 117        4PX        -0.00119   0.00005  -0.00006   0.00013   0.00000
 118        4PY        -0.00016   0.00341   0.00023   0.02179   0.00000
 119        4PZ         0.00000   0.00000   0.00000   0.00000  -0.03316
 120 11  F  1S          0.00080  -0.00142   0.00257  -0.00336   0.00000
 121        2S         -0.00157   0.00290  -0.00355   0.00610   0.00000
 122        2PX        -0.01235   0.02553  -0.01068   0.03520   0.00000
 123        2PY         0.00492  -0.01435   0.01149  -0.02074   0.00000
 124        2PZ         0.00000   0.00000   0.00000   0.00000  -0.01041
 125        3S         -0.00555   0.00947  -0.01709   0.01864   0.00000
 126        3PX        -0.00823   0.01795  -0.01393   0.02633   0.00000
 127        3PY         0.00364  -0.01043   0.01233  -0.01729   0.00000
 128        3PZ         0.00000   0.00000   0.00000   0.00000  -0.00683
 129        4S         -0.00516   0.00900  -0.01289   0.01254   0.00000
 130        4PX        -0.00339   0.00728  -0.00568   0.00941   0.00000
 131        4PY         0.00265  -0.00367   0.00014  -0.00402   0.00000
 132        4PZ         0.00000   0.00000   0.00000   0.00000  -0.00193
                           6         7         8         9        10
   6        3S          0.60206
   7        3PX        -0.17910   0.14141
   8        3PY         0.01331  -0.00436   0.23805
   9        3PZ         0.00000   0.00000   0.00000   0.14060
  10        4S          1.06160  -0.49295  -0.02093   0.00000   3.24793
  11        4PX        -0.14575   0.07728   0.01026   0.00000  -0.48091
  12        4PY        -0.00814   0.02386   0.61305   0.00000   0.05584
  13        4PZ         0.00000   0.00000   0.00000   0.01215   0.00000
  14 2   C  1S          0.03468  -0.03081   0.00810   0.00000   0.13153
  15        2S          0.00036   0.02586   0.00082   0.00000  -0.18243
  16        2PX         0.08541   0.03186   0.05572   0.00000   0.04410
  17        2PY        -0.17635   0.06608  -0.00613   0.00000  -0.27282
  18        2PZ         0.00000   0.00000   0.00000   0.12895   0.00000
  19        3S         -0.17582   0.16276  -0.10869   0.00000  -0.55558
  20        3PX        -0.02999  -0.03118  -0.10820   0.00000   0.01979
  21        3PY         0.15639  -0.09590   0.09874   0.00000   0.32585
  22        3PZ         0.00000   0.00000   0.00000   0.06732   0.00000
  23        4S         -0.45706   0.28784  -0.46960   0.00000  -1.69508
  24        4PX        -0.09961  -0.00230  -0.39765   0.00000  -0.25372
  25        4PY         0.16376  -0.05788   0.20834   0.00000   0.50829
  26        4PZ         0.00000   0.00000   0.00000   0.01042   0.00000
  27 3   C  1S          0.01491   0.00555   0.01231   0.00000  -0.05687
  28        2S         -0.03874  -0.01103  -0.02021   0.00000  -0.04915
  29        2PX        -0.09519  -0.01578  -0.06379   0.00000  -0.17047
  30        2PY         0.02202   0.01849   0.02010   0.00000  -0.16426
  31        2PZ         0.00000   0.00000   0.00000  -0.00771   0.00000
  32        3S         -0.05375  -0.05647  -0.07281   0.00000  -0.05302
  33        3PX        -0.00276  -0.07041  -0.05533   0.00000   0.07454
  34        3PY        -0.09577   0.07507  -0.04486   0.00000  -0.00827
  35        3PZ         0.00000   0.00000   0.00000  -0.00549   0.00000
  36        4S         -0.06268  -0.07537  -0.44214   0.00000  -0.01995
  37        4PX        -0.00193  -0.03721  -0.12339   0.00000   0.02887
  38        4PY        -0.03688   0.00264  -0.08484   0.00000  -0.08465
  39        4PZ         0.00000   0.00000   0.00000  -0.00846   0.00000
  40 4   N  1S          0.06937  -0.05490   0.00820   0.00000  -0.16228
  41        2S         -0.06025   0.06123  -0.00562   0.00000   0.26088
  42        2PX         0.04221  -0.10360  -0.00463   0.00000   0.07841
  43        2PY         0.00052   0.00171   0.01825   0.00000   0.05067
  44        2PZ         0.00000   0.00000   0.00000  -0.09077   0.00000
  45        3S         -0.13664   0.12937  -0.02339   0.00000   0.32303
  46        3PX         0.01744  -0.03420  -0.00861   0.00000   0.07264
  47        3PY         0.00340  -0.00769  -0.00971   0.00000   0.05479
  48        3PZ         0.00000   0.00000   0.00000  -0.06875   0.00000
  49        4S         -0.06030   0.07585  -0.01319   0.00000  -0.02505
  50        4PX         0.00463   0.01242  -0.00193   0.00000   0.01790
  51        4PY         0.00401   0.00252  -0.01584   0.00000  -0.01199
  52        4PZ         0.00000   0.00000   0.00000   0.00139   0.00000
  53 5   C  1S          0.01507   0.00167  -0.01106   0.00000  -0.07891
  54        2S         -0.03957  -0.00921   0.01808   0.00000   0.00542
  55        2PX        -0.09926  -0.01714   0.07325   0.00000  -0.23589
  56        2PY        -0.02849  -0.02616   0.01803   0.00000   0.00004
  57        2PZ         0.00000   0.00000   0.00000  -0.00257   0.00000
  58        3S         -0.01920  -0.06871   0.06183   0.00000  -0.08001
  59        3PX        -0.03641  -0.03066   0.04598   0.00000  -0.06330
  60        3PY         0.03859  -0.05188  -0.01415   0.00000   0.02248
  61        3PZ         0.00000   0.00000   0.00000  -0.00376   0.00000
  62        4S         -0.00606  -0.11107   0.39338   0.00000  -0.02365
  63        4PX        -0.00942  -0.02119   0.11238   0.00000  -0.02669
  64        4PY         0.04723  -0.03921  -0.07259   0.00000   0.11501
  65        4PZ         0.00000   0.00000   0.00000  -0.01400   0.00000
  66 6   C  1S          0.03462  -0.02818  -0.01318   0.00000   0.14201
  67        2S          0.00074   0.02195   0.00565   0.00000  -0.18051
  68        2PX         0.09447   0.03694  -0.07127   0.00000   0.04625
  69        2PY         0.17132  -0.06230  -0.00369   0.00000   0.30846
  70        2PZ         0.00000   0.00000   0.00000   0.13094   0.00000
  71        3S         -0.15076   0.13232   0.12532   0.00000  -0.44936
  72        3PX        -0.01763  -0.01566   0.08805   0.00000  -0.06184
  73        3PY        -0.12398   0.07680   0.07815   0.00000  -0.32854
  74        3PZ         0.00000   0.00000   0.00000   0.06954   0.00000
  75        4S         -0.52223   0.37456   0.54351   0.00000  -1.50326
  76        4PX        -0.10286   0.02936   0.37451   0.00000  -0.23307
  77        4PY        -0.18373   0.09981   0.20774   0.00000  -0.51512
  78        4PZ         0.00000   0.00000   0.00000   0.01487   0.00000
  79 7   H  1S          0.04807  -0.00150  -0.02541   0.00000   0.09814
  80        2S          0.06889  -0.03065  -0.02908   0.00000   0.10225
  81 8   F  1S          0.05700  -0.04950   0.01232   0.00000   0.13499
  82        2S         -0.06656   0.05295  -0.01430   0.00000  -0.17101
  83        2PX        -0.23152   0.06844   0.15315   0.00000  -0.47014
  84        2PY        -0.24745   0.12825   0.06926   0.00000  -0.71365
  85        2PZ         0.00000   0.00000   0.00000  -0.09723   0.00000
  86        3S         -0.08912   0.06701  -0.01581   0.00000  -0.23106
  87        3PX        -0.14676   0.04332   0.09313   0.00000  -0.29066
  88        3PY        -0.15788   0.07936   0.04045   0.00000  -0.44938
  89        3PZ         0.00000   0.00000   0.00000  -0.06777   0.00000
  90        4S         -0.00473   0.00124  -0.00263   0.00000   0.00251
  91        4PX        -0.01197   0.00495   0.00102   0.00000  -0.02194
  92        4PY        -0.00974   0.00435   0.00467   0.00000  -0.02077
  93        4PZ         0.00000   0.00000   0.00000  -0.02360   0.00000
  94 9   F  1S          0.00188   0.09028   0.00181   0.00000  -0.28642
  95        2S         -0.04681  -0.12549  -0.00181   0.00000   0.37181
  96        2PX        -0.14406   0.02302   0.00205   0.00000  -0.42270
  97        2PY         0.01151  -0.00289   0.35119   0.00000   0.04221
  98        2PZ         0.00000   0.00000   0.00000   0.03812   0.00000
  99        3S         -0.04924  -0.16809  -0.00184   0.00000   0.47497
 100        3PX        -0.07885   0.02856   0.00105   0.00000  -0.27636
 101        3PY         0.00643  -0.00145   0.20939   0.00000   0.02921
 102        3PZ         0.00000   0.00000   0.00000   0.01393   0.00000
 103        4S         -0.02041  -0.02784   0.00266   0.00000  -0.00552
 104        4PX         0.00841   0.00513  -0.00179   0.00000   0.00746
 105        4PY        -0.00006   0.00060   0.00085   0.00000   0.00047
 106        4PZ         0.00000   0.00000   0.00000  -0.01909   0.00000
 107 10  F  1S          0.05808  -0.05021  -0.01077   0.00000   0.14354
 108        2S         -0.06550   0.05278   0.01379   0.00000  -0.17736
 109        2PX        -0.24450   0.06489  -0.16945   0.00000  -0.43491
 110        2PY         0.25690  -0.12856   0.08326   0.00000   0.61742
 111        2PZ         0.00000   0.00000   0.00000  -0.09911   0.00000
 112        3S         -0.08859   0.06882   0.01212   0.00000  -0.23233
 113        3PX        -0.15391   0.04085  -0.10154   0.00000  -0.27154
 114        3PY         0.16340  -0.08083   0.04972   0.00000   0.38803
 115        3PZ         0.00000   0.00000   0.00000  -0.06898   0.00000
 116        4S         -0.01974   0.01596  -0.00457   0.00000  -0.01469
 117        4PX        -0.00676   0.00111   0.00176   0.00000  -0.01465
 118        4PY         0.01464  -0.01020   0.00629   0.00000   0.02234
 119        4PZ         0.00000   0.00000   0.00000  -0.02263   0.00000
 120 11  F  1S         -0.02801   0.01049  -0.01063   0.00000   0.16032
 121        2S          0.03292  -0.00916   0.01292   0.00000  -0.19353
 122        2PX         0.09518  -0.05520   0.00381   0.00000   0.31118
 123        2PY        -0.04831  -0.01842  -0.04789   0.00000   0.23107
 124        2PZ         0.00000   0.00000   0.00000  -0.00070   0.00000
 125        3S          0.06691  -0.03740   0.02132   0.00000  -0.20180
 126        3PX         0.07055  -0.04196   0.00800   0.00000   0.19942
 127        3PY        -0.04107   0.00253  -0.02981   0.00000   0.14092
 128        3PZ         0.00000   0.00000   0.00000  -0.00038   0.00000
 129        4S          0.04756  -0.05335   0.01355   0.00000   0.05849
 130        4PX         0.01727  -0.01115   0.00159   0.00000   0.02986
 131        4PY        -0.01469   0.01746  -0.00356   0.00000  -0.00864
 132        4PZ         0.00000   0.00000   0.00000  -0.00075   0.00000
                          11        12        13        14        15
  11        4PX         0.11177
  12        4PY         0.01909   1.99908
  13        4PZ         0.00000   0.00000   0.00843
  14 2   C  1S         -0.02713  -0.02599   0.00000   2.05998
  15        2S          0.03820   0.00480   0.00000  -0.08460   0.34027
  16        2PX        -0.00805  -0.04261   0.00000   0.01159  -0.01878
  17        2PY         0.05803   0.13984   0.00000   0.01885  -0.03233
  18        2PZ         0.00000   0.00000  -0.00593   0.00000   0.00000
  19        3S          0.13428  -0.25727   0.00000  -0.25759   0.32673
  20        3PX        -0.05432  -0.36309   0.00000   0.02462  -0.02927
  21        3PY        -0.04143   0.28293   0.00000   0.04210  -0.05106
  22        3PZ         0.00000   0.00000  -0.00859   0.00000   0.00000
  23        4S          0.40813  -1.71714   0.00000  -0.09428   0.25100
  24        4PX        -0.05981  -1.29268   0.00000   0.02686  -0.04064
  25        4PY        -0.05298   0.72508   0.00000   0.01930  -0.04425
  26        4PZ         0.00000   0.00000  -0.00801   0.00000   0.00000
  27 3   C  1S          0.02257  -0.09038   0.00000   0.02038  -0.04455
  28        2S         -0.00401   0.05104   0.00000  -0.04297   0.08230
  29        2PX         0.01447  -0.06542   0.00000  -0.08317   0.16749
  30        2PY         0.05779   0.06031   0.00000  -0.01355   0.02967
  31        2PZ         0.00000   0.00000   0.01155   0.00000   0.00000
  32        3S         -0.05172  -0.13278   0.00000   0.02108   0.01651
  33        3PX        -0.06157  -0.16833   0.00000   0.03005  -0.02302
  34        3PY         0.02374  -0.02402   0.00000  -0.02013   0.02511
  35        3PZ         0.00000   0.00000   0.00838   0.00000   0.00000
  36        4S         -0.19555  -1.26543   0.00000   0.03703  -0.11866
[...]
     31  0.000000D+00  0.000000D+00  0.935422D-02  0.000000D+00  0.000000D+00
     32 -0.704273D-01 -0.665914D-02  0.000000D+00  0.422105D-02 -0.258798D-02
     33  0.110635D-01  0.219678D-01  0.000000D+00  0.251643D-02 -0.497288D-02
               16            17            18            19            20 
     16  0.123818D+00
     17  0.000000D+00  0.675333D+00
     18  0.000000D+00 -0.939765D-02  0.698367D+00
     19  0.677694D-02  0.000000D+00  0.000000D+00  0.261238D-01
     20  0.000000D+00  0.519281D-02 -0.427729D-02  0.000000D+00  0.282355D+00
     21  0.000000D+00  0.281678D-01 -0.128334D-01  0.000000D+00 -0.141794D+00
     22 -0.303952D-01  0.000000D+00  0.000000D+00 -0.318346D-02  0.000000D+00
     23  0.000000D+00 -0.236657D+00 -0.967201D-01  0.000000D+00  0.102063D-02
     24  0.000000D+00 -0.994318D-01 -0.118464D+00  0.000000D+00  0.129369D-02
     25  0.437496D-02  0.000000D+00  0.000000D+00 -0.432315D-03  0.000000D+00
     26  0.000000D+00  0.382670D-02  0.348012D-01  0.000000D+00  0.541860D-03
     27  0.000000D+00 -0.713676D-02 -0.480096D-01  0.000000D+00 -0.491460D-03
     28  0.791262D-02  0.000000D+00  0.000000D+00 -0.117910D-02  0.000000D+00
     29  0.000000D+00  0.468801D-02 -0.609869D-02  0.000000D+00 -0.104422D-04
     30  0.000000D+00 -0.290313D-02 -0.403825D-02  0.000000D+00  0.257824D-03
     31  0.101216D-04  0.000000D+00  0.000000D+00  0.414986D-03  0.000000D+00
     32  0.000000D+00  0.554270D-03  0.225449D-02  0.000000D+00 -0.917794D-03
     33  0.000000D+00 -0.175666D-03  0.465083D-02  0.000000D+00  0.540078D-04
               21            22            23            24            25 
     21  0.155187D+00
     22  0.000000D+00  0.190128D-01
     23 -0.456432D-03  0.000000D+00  0.289626D+00
     24  0.239030D-02  0.000000D+00  0.132445D+00  0.131533D+00
     25  0.000000D+00 -0.277396D-02  0.000000D+00  0.000000D+00  0.197792D-01
     26  0.125515D-02  0.000000D+00  0.523387D-02  0.142551D-02  0.000000D+00
     27 -0.118484D-02  0.000000D+00  0.232140D-02  0.764018D-02  0.000000D+00
     28  0.000000D+00  0.803968D-04  0.000000D+00  0.000000D+00 -0.341047D-02
     29 -0.933842D-04  0.000000D+00 -0.324104D-02  0.196110D-03  0.000000D+00
     30  0.263201D-03  0.000000D+00 -0.798374D-04  0.115926D-02  0.000000D+00
     31  0.000000D+00 -0.132789D-02  0.000000D+00  0.000000D+00 -0.438184D-03
     32 -0.512203D-03  0.000000D+00 -0.404955D-02 -0.317031D-02  0.000000D+00
     33  0.152050D-03  0.000000D+00 -0.219750D-02 -0.111910D-02  0.000000D+00
               26            27            28            29            30 
     26  0.581429D-01
     27  0.113432D-02  0.385183D+00
     28  0.000000D+00  0.000000D+00  0.176385D-01
     29  0.569655D-02 -0.258324D-02  0.000000D+00  0.302158D+00
     30 -0.148729D-02  0.801611D-02  0.000000D+00 -0.133897D+00  0.128594D+00
     31  0.000000D+00  0.000000D+00 -0.155719D-02  0.000000D+00  0.000000D+00
     32  0.171458D-04 -0.202735D-02  0.000000D+00  0.920403D-02 -0.650301D-03
     33 -0.189066D-02 -0.283158D-02  0.000000D+00  0.110626D-02  0.284777D-02
               31            32            33 
     31  0.199155D-01
     32  0.000000D+00  0.279734D+00
     33  0.000000D+00  0.130370D+00  0.147443D+00
 Leave Link  716 at Mon Nov 11 12:10:32 2024, MaxMem=   33554432 cpu:       0.0
 (Enter C:\G09W\l103.exe)

 GradGradGradGradGradGradGradGradGradGradGradGradGradGradGradGradGradGrad
 Berny optimization.
 Internal  Forces:  Max     0.000153082 RMS     0.000048399
 Search for a local minimum.
 Step number   1 out of a maximum of    2
 All quantities printed in internal units (Hartrees-Bohrs-Radians)
 Second derivative matrix not updated -- analytic derivatives used.
     Eigenvalues ---    0.01760   0.02096   0.02439   0.02657   0.03098
     Eigenvalues ---    0.03302   0.03760   0.04488   0.12038   0.15363
     Eigenvalues ---    0.17036   0.18946   0.19217   0.20020   0.20645
     Eigenvalues ---    0.21934   0.32238   0.33255   0.36903   0.37626
     Eigenvalues ---    0.38599   0.39876   0.44276   0.45431   0.48606
     Eigenvalues ---    0.51864   0.572721000.000001000.000001000.00000
     Eigenvalues --- 1000.000001000.000001000.000001000.000001000.00000
     Eigenvalues --- 1000.000001000.000001000.000001000.000001000.00000
     Eigenvalues --- 1000.000001000.000001000.000001000.000001000.00000
     Eigenvalues --- 1000.000001000.00000
 Angle between quadratic step and forces=  22.35 degrees.
 Linear search not attempted -- first point.
 Iteration  1 RMS(Cart)=  0.00028101 RMS(Int)=  0.00000009
 Iteration  2 RMS(Cart)=  0.00000009 RMS(Int)=  0.00000001
 ClnCor:  largest displacement from symmetrization is 1.82D-10 for atom    11.
 Variable       Old X    -DE/DX   Delta X   Delta X   Delta X     New X
                                 (Linear)    (Quad)   (Total)
    R1        2.62840  -0.00008   0.00000  -0.00034  -0.00034   2.62806
    R2        2.64068   0.00006   0.00000   0.00022   0.00022   2.64090
    R3        2.59449   0.00008   0.00000   0.00026   0.00026   2.59475
    R4        2.63908   0.00000   0.00000   0.00011   0.00011   2.63920
    R5        2.60227  -0.00001   0.00000  -0.00005  -0.00005   2.60222
    R6        2.49087   0.00011   0.00000   0.00022   0.00022   2.49109
    R7        2.60719   0.00000   0.00000   0.00000   0.00000   2.60719
    R8        2.55878   0.00015   0.00000   0.00049   0.00049   2.55926
    R9        2.62401  -0.00004   0.00000  -0.00020  -0.00020   2.62382
   R10        2.04335   0.00000   0.00000  -0.00001  -0.00001   2.04334
   R11        2.61650  -0.00011   0.00000  -0.00034  -0.00034   2.61617
    A1        2.07101   0.00003   0.00000   0.00007   0.00007   2.07109
    A2        2.10309   0.00004   0.00000   0.00032   0.00032   2.10341
    A3        2.10908  -0.00007   0.00000  -0.00039  -0.00039   2.10869
    A4        2.05233   0.00001   0.00000  -0.00004  -0.00004   2.05229
    A5        2.10286   0.00011   0.00000   0.00070   0.00070   2.10356
    A6        2.12799  -0.00011   0.00000  -0.00065  -0.00065   2.12733
    A7        2.16194   0.00004   0.00000   0.00031   0.00031   2.16225
    A8        2.06850  -0.00002   0.00000  -0.00018  -0.00018   2.06832
    A9        2.05274  -0.00002   0.00000  -0.00013  -0.00013   2.05261
   A10        2.08018  -0.00010   0.00000  -0.00053  -0.00053   2.07965
   A11        2.10817   0.00003   0.00000   0.00025   0.00025   2.10842
   A12        2.05774  -0.00001   0.00000  -0.00020  -0.00020   2.05754
   A13        2.11727  -0.00002   0.00000  -0.00005  -0.00005   2.11722
   A14        2.09273   0.00000   0.00000  -0.00005  -0.00005   2.09268
   A15        2.08402   0.00000   0.00000  -0.00005  -0.00005   2.08397
   A16        2.10644   0.00001   0.00000   0.00010   0.00010   2.10654
    D1        0.00000   0.00000   0.00000   0.00000   0.00000   0.00000
    D2        3.14159   0.00000   0.00000   0.00000   0.00000   3.14159
    D3        3.14159   0.00000   0.00000   0.00000   0.00000   3.14159
    D4        0.00000   0.00000   0.00000   0.00000   0.00000   0.00000
    D5        0.00000   0.00000   0.00000   0.00000   0.00000   0.00000
    D6        3.14159   0.00000   0.00000   0.00000   0.00000   3.14159
    D7        3.14159   0.00000   0.00000   0.00000   0.00000   3.14159
    D8        0.00000   0.00000   0.00000   0.00000   0.00000   0.00000
    D9        0.00000   0.00000   0.00000   0.00000   0.00000   0.00000
   D10        3.14159   0.00000   0.00000   0.00000   0.00000   3.14159
   D11        3.14159   0.00000   0.00000   0.00000   0.00000   3.14159
   D12        0.00000   0.00000   0.00000   0.00000   0.00000   0.00000
   D13        0.00000   0.00000   0.00000   0.00000   0.00000   0.00000
   D14        3.14159   0.00000   0.00000   0.00000   0.00000   3.14159
   D15        0.00000   0.00000   0.00000   0.00000   0.00000   0.00000
   D16        3.14159   0.00000   0.00000   0.00000   0.00000   3.14159
   D17        0.00000   0.00000   0.00000   0.00000   0.00000   0.00000
   D18        3.14159   0.00000   0.00000   0.00000   0.00000   3.14159
   D19        3.14159   0.00000   0.00000   0.00000   0.00000   3.14159
   D20        0.00000   0.00000   0.00000   0.00000   0.00000   0.00000
         Item               Value     Threshold  Converged?
 Maximum Force            0.000153     0.000450     YES
 RMS     Force            0.000048     0.000300     YES
 Maximum Displacement     0.001180     0.001800     YES
 RMS     Displacement     0.000281     0.001200     YES
 Predicted change in Energy=-2.382797D-07
 Optimization completed.
    -- Stationary point found.
                           ----------------------------
                           !   Optimized Parameters   !
                           ! (Angstroms and Degrees)  !
 --------------------------                            --------------------------
 ! Name  Definition              Value          Derivative Info.                !
 --------------------------------------------------------------------------------
 ! R1    R(1,2)                  1.3909         -DE/DX =   -0.0001              !
 ! R2    R(1,6)                  1.3974         -DE/DX =    0.0001              !
 ! R3    R(1,9)                  1.3729         -DE/DX =    0.0001              !
 ! R4    R(2,3)                  1.3965         -DE/DX =    0.0                 !
 ! R5    R(2,10)                 1.3771         -DE/DX =    0.0                 !
 ! R6    R(3,4)                  1.3181         -DE/DX =    0.0001              !
 ! R7    R(3,11)                 1.3797         -DE/DX =    0.0                 !
 ! R8    R(4,5)                  1.354          -DE/DX =    0.0002              !
 ! R9    R(5,6)                  1.3886         -DE/DX =    0.0                 !
 ! R10   R(5,7)                  1.0813         -DE/DX =    0.0                 !
 ! R11   R(6,8)                  1.3846         -DE/DX =   -0.0001              !
 ! A1    A(2,1,6)              118.6603         -DE/DX =    0.0                 !
 ! A2    A(2,1,9)              120.4982         -DE/DX =    0.0                 !
 ! A3    A(6,1,9)              120.8415         -DE/DX =   -0.0001              !
 ! A4    A(1,2,3)              117.5901         -DE/DX =    0.0                 !
 ! A5    A(1,2,10)             120.4851         -DE/DX =    0.0001              !
 ! A6    A(3,2,10)             121.9248         -DE/DX =   -0.0001              !
 ! A7    A(2,3,4)              123.8702         -DE/DX =    0.0                 !
 ! A8    A(2,3,11)             118.5166         -DE/DX =    0.0                 !
 ! A9    A(4,3,11)             117.6132         -DE/DX =    0.0                 !
 ! A10   A(3,4,5)              119.1858         -DE/DX =   -0.0001              !
 ! A11   A(4,5,6)              120.7892         -DE/DX =    0.0                 !
 ! A12   A(4,5,7)              117.8999         -DE/DX =    0.0                 !
 ! A13   A(6,5,7)              121.3109         -DE/DX =    0.0                 !
 ! A14   A(1,6,5)              119.9045         -DE/DX =    0.0                 !
 ! A15   A(1,6,8)              119.4054         -DE/DX =    0.0                 !
 ! A16   A(5,6,8)              120.6901         -DE/DX =    0.0                 !
 ! D1    D(6,1,2,3)              0.0            -DE/DX =    0.0                 !
 ! D2    D(6,1,2,10)           180.0            -DE/DX =    0.0                 !
 ! D3    D(9,1,2,3)            180.0            -DE/DX =    0.0                 !
 ! D4    D(9,1,2,10)             0.0            -DE/DX =    0.0                 !
 ! D5    D(2,1,6,5)              0.0            -DE/DX =    0.0                 !
 ! D6    D(2,1,6,8)            180.0            -DE/DX =    0.0                 !
 ! D7    D(9,1,6,5)            180.0            -DE/DX =    0.0                 !
 ! D8    D(9,1,6,8)              0.0            -DE/DX =    0.0                 !
 ! D9    D(1,2,3,4)              0.0            -DE/DX =    0.0                 !
 ! D10   D(1,2,3,11)           180.0            -DE/DX =    0.0                 !
 ! D11   D(10,2,3,4)           180.0            -DE/DX =    0.0                 !
 ! D12   D(10,2,3,11)            0.0            -DE/DX =    0.0                 !
 ! D13   D(2,3,4,5)              0.0            -DE/DX =    0.0                 !
 ! D14   D(11,3,4,5)           180.0            -DE/DX =    0.0                 !
 ! D15   D(3,4,5,6)              0.0            -DE/DX =    0.0                 !
 ! D16   D(3,4,5,7)            180.0            -DE/DX =    0.0                 !
 ! D17   D(4,5,6,1)              0.0            -DE/DX =    0.0                 !
 ! D18   D(4,5,6,8)            180.0            -DE/DX =    0.0                 !
 ! D19   D(7,5,6,1)            180.0            -DE/DX =    0.0                 !
 ! D20   D(7,5,6,8)              0.0            -DE/DX =    0.0                 !
 --------------------------------------------------------------------------------
 GradGradGradGradGradGradGradGradGradGradGradGradGradGradGradGradGradGrad

 Leave Link  103 at Mon Nov 11 12:10:32 2024, MaxMem=   33554432 cpu:       0.0
 (Enter C:\G09W\l9999.exe)
 1|1|UNPC-CPS-DS-9O2QM0P|Freq|RB3LYP|6-31+G|C5H1F4N1|ADMIN-SULEIM13|11-
 Nov-2024|0||#P Geom=AllCheck Guess=TCheck SCRF=Check GenChk RB3LYP/6-3
 1+G Freq||C5NHF4||0,1|C,0.09009082,0.0922145053,-1.4007592526|C,0.0900
 9082,1.2916125855,-0.6964743025|C,0.09009082,1.2226295502,0.6983641415
 |N,0.09009082,0.0932470512,1.3780086698|C,0.09009082,-1.0820360404,0.7
 055883656|C,0.09009082,-1.106604112,-0.6827619108|H,0.09009082,-1.9957
 650525,1.283774891|F,0.09009082,-2.3095890565,-1.368272961|F,0.0900908
 2,0.090373956,-2.7737009079|F,0.09009082,2.4949246523,-1.3660507034|F,
 0.09009082,2.400897731,1.4161122303||Version=IA32W-G09RevA.02|State=1-
 A'|HF=-645.0775618|RMSD=1.063e-009|RMSF=8.792e-005|ZeroPoint=0.0555629
 |Thermal=0.0632189|Dipole=0.,-0.7387554,0.1040795|DipoleDeriv=0.154896
 9,0.,0.,0.,0.2294763,-0.0099861,0.,0.0200202,1.1733493,0.1608662,0.,0.
 ,0.,0.7857215,-0.4479643,0.,-0.7134218,0.2305515,0.246905,0.,0.,0.,1.1
 576256,0.4517145,0.,0.6660509,0.6632153,-0.2439142,0.,0.,0.,-0.500193,
 -0.1226089,0.,0.1457973,-0.3841623,-0.0326954,0.,0.,0.,0.207269,0.0670
 772,0.,-0.2849521,0.1984825,0.1572353,0.,0.,0.,0.8459312,0.4707418,0.,
 0.5871819,0.2592213,0.1565725,0.,0.,0.,0.0318813,0.0004547,0.,0.033922
 9,0.098899,-0.1529306,0.,0.,0.,-0.8595876,-0.3735988,0.,-0.3913966,-0.
 4078674,-0.126134,0.,0.,0.,-0.1731727,0.0023404,0.,-0.0253866,-0.98193
 71,-0.1341927,0.,0.,0.,-0.8374038,0.3593816,0.,0.4061983,-0.3930396,-0
 .1866089,0.,0.,0.,-0.8875479,-0.3975522,0.,-0.4440145,-0.4567125|Polar
 =31.4761086,0.,80.8400438,0.,1.8600869,73.5413404|PG=CS [SG(C5H1F4N1)]
 |NImag=0||0.12840948,0.,0.70981563,0.,0.00625833,0.69550077,-0.0549622
 3,0.,0.,0.11718210,0.,-0.28849431,-0.14707884,0.,0.70278739,0.,-0.0636
 2667,-0.16605465,0.,0.00875333,0.68997279,-0.00264954,0.,0.,-0.0623240
 9,0.,0.,0.15081465,0.,0.04519529,-0.03328565,0.,-0.09674703,-0.0372802
 1,0.,0.68530147,0.,-0.08464133,-0.03039516,0.,0.04545633,-0.31338519,0
 .,-0.00961785,0.68016330,0.00064242,0.,0.,0.01278026,0.,0.,-0.06498347
 ,0.,0.,0.09569598,0.,-0.08101506,0.00249824,0.,0.02158122,0.09023680,0
 .,-0.29128870,0.10454898,0.,0.70083080,0.,0.00387403,0.00434942,0.,0.0
 3536214,-0.02578687,0.,0.10722144,-0.18030095,0.,-0.00527943,0.3552192
 3,0.00119498,0.,0.,0.00368399,0.,0.,-0.00279347,0.,0.,-0.06349048,0.,0
 .,0.14973321,0.,0.04381699,0.02832443,0.,-0.01446325,-0.03637986,0.,-0
 .09976802,0.02533017,0.,-0.27962396,-0.10422845,0.,0.75242822,0.,0.073
 99006,-0.03001328,0.,-0.02441170,-0.05530030,0.,-0.00894355,0.04770905
 ,0.,-0.08396347,-0.14216666,0.,-0.07350643,0.68541777,-0.05705108,0.,0
 .,-0.00493802,0.,0.,0.00042484,0.,0.,0.01390235,0.,0.,-0.06483547,0.,0
 .,0.12381799,0.,-0.27014520,0.14101237,0.,-0.05815540,-0.02368717,0.,-
 0.02153209,0.02544564,0.,0.02459236,-0.03755856,0.,-0.12769838,-0.0143
 3505,0.,0.67533344,0.,0.05660952,-0.16213507,0.,0.02052480,0.07297226,
 0.,0.03861949,-0.06131316,0.,-0.09640633,-0.03089384,0.,0.06009051,-0.
 33830326,0.,-0.00939765,0.69836709,0.00640968,0.,0.,0.00009345,0.,0.,0
 .00889151,0.,0.,-0.00414307,0.,0.,-0.03977243,0.,0.,0.00677694,0.,0.,0
 .02612381,0.,-0.00053872,-0.00117287,0.,0.00002852,-0.00000979,0.,-0.0
 0117455,-0.00080281,0.,-0.02839876,0.00690293,0.,-0.25809834,0.1400396
 3,0.,0.00519281,-0.00427729,0.,0.28235480,0.,-0.00197104,-0.00374811,0
 .,-0.00099107,-0.00051291,0.,-0.00501383,0.00106250,0.,-0.02163416,0.0
 1178206,0.,0.14304308,-0.15255734,0.,0.02816777,-0.01283343,0.,-0.1417
 9388,0.15518652,0.00258128,0.,0.,0.00649250,0.,0.,-0.00004090,0.,0.,0.
 00755752,0.,0.,0.00199699,0.,0.,-0.03039524,0.,0.,-0.00318346,0.,0.,0.
 01901277,0.,-0.04717500,-0.03353618,0.,0.00362275,0.00579542,0.,0.0049
 5952,-0.00137933,0.,-0.00091027,0.00139555,0.,-0.01243034,-0.00758802,
 0.,-0.23665651,-0.09672009,0.,0.00102063,-0.00045643,0.,0.28962594,0.,
 0.00955223,0.00184540,0.,0.00215343,-0.00533773,0.,0.00306907,0.000621
 54,0.,0.00204547,-0.00426718,0.,-0.04957842,-0.01600231,0.,-0.09943180
 ,-0.11846357,0.,0.00129369,0.00239030,0.,0.13244503,0.13153321,-0.0337
 2502,0.,0.,0.00496681,0.,0.,0.00730457,0.,0.,-0.00180480,0.,0.,0.00615
 926,0.,0.,0.00437496,0.,0.,-0.00043231,0.,0.,-0.00277396,0.,0.,0.01977
 916,0.,-0.06561160,-0.00047294,0.,0.00315951,-0.03534367,0.,-0.0066497
 5,0.00227526,0.,0.00308671,-0.00073220,0.,-0.00744384,-0.00096472,0.,0
 .00382670,0.03480124,0.,0.00054186,0.00125515,0.,0.00523387,0.00142551
 ,0.,0.05814285,0.,-0.00092896,-0.31012904,0.,0.00655288,-0.04904744,0.
 ,-0.00035735,0.00794700,0.,-0.00092435,-0.00304230,0.,0.00444087,0.005
 45869,0.,-0.00713676,-0.04800960,0.,-0.00049146,-0.00118484,0.,0.00232
 140,0.00764018,0.,0.00113432,0.38518283,0.00315937,0.,0.,-0.02860889,0
 .,0.,0.00102259,0.,0.,0.00617296,0.,0.,-0.00123080,0.,0.,0.00791262,0.
 ,0.,-0.00117910,0.,0.,0.00008040,0.,0.,-0.00341047,0.,0.,0.01763852,0.
 ,-0.04771367,0.03389875,0.,-0.24836187,0.10016887,0.,-0.02305252,0.005
 32933,0.,0.00157299,-0.00029831,0.,-0.00094011,0.00227123,0.,0.0046880
 1,-0.00609869,0.,-0.00001044,-0.00009338,0.,-0.00324104,0.00019611,0.,
 0.00569655,-0.00258324,0.,0.30215809,0.,-0.00776574,0.00282478,0.,0.10
 232921,-0.11768604,0.,0.04643374,-0.01585025,0.,-0.00218520,-0.0068607
 3,0.,-0.00005234,0.00073053,0.,-0.00290313,-0.00403825,0.,0.00025782,0
 .00026320,0.,-0.00007984,0.00115926,0.,-0.00148729,0.00801611,0.,-0.13
 389695,0.12859363,0.00599068,0.,0.,0.00563412,0.,0.,-0.03566668,0.,0.,
 -0.00232967,0.,0.,0.00935422,0.,0.,0.00001012,0.,0.,0.00041499,0.,0.,-
 0.00132789,0.,0.,-0.00043818,0.,0.,-0.00155719,0.,0.,0.01991548,0.,0.0
 0186565,0.00355437,0.,-0.02495754,-0.00862706,0.,-0.19524360,-0.111944
 40,0.,-0.07042732,-0.00665914,0.,0.00422105,-0.00258798,0.,0.00055427,
 0.00225449,0.,-0.00091779,-0.00051220,0.,-0.00404955,-0.00317031,0.,0.
 00001715,-0.00202735,0.,0.00920403,-0.00065030,0.,0.27973366,0.,0.0086
 4959,-0.00204506,0.,-0.04865051,-0.02983393,0.,-0.10084531,-0.13625868
 ,0.,0.01106346,0.02196784,0.,0.00251643,-0.00497288,0.,-0.00017567,0.0
 0465083,0.,0.00005401,0.00015205,0.,-0.00219750,-0.00111910,0.,-0.0018
 9066,-0.00283158,0.,0.00110626,0.00284777,0.,0.13036989,0.14744274||0.
 ,-0.00015390,-0.00015549,0.,0.00009871,0.00015612,0.,-0.00008218,0.000
 11241,0.,-0.00004531,-0.00023903,0.,0.00008342,0.00016006,0.,0.0001857
 9,0.00000927,0.,-0.00000455,0.00000128,0.,-0.00009456,-0.00005444,0.,0
 .00004395,0.00008416,0.,-0.00002626,-0.00007546,0.,-0.00000511,0.00000
 112|||@


 SLITHERY-DITHERY
 FRIEDRICH A. KEKULE
 DREAMT ON A BUS OF THINGS
 FREUD WOULD THINK KEEN.
 MOST OF THE TIME THEY WERE
 HERPETOLOGICAL
 BITING THEIR TAILS IN THE
 SHAPE OF BENZENE.
 Job cpu time:  0 days  0 hours  1 minutes 49.0 seconds.
 File lengths (MBytes):  RWF=     33 Int=      0 D2E=      0 Chk=      2 Scr=      1
 Normal termination of Gaussian 09 at Mon Nov 11 12:10:32 2024.
