 Entering Gaussian System, Link 0=g09
 Initial command:
 /gaussian/g09B.01/g09/l1.exe /tmp/Gau-1949871.inp -scrdir=/tmp/
 Entering Link 1 = /gaussian/g09B.01/g09/l1.exe PID=   1949872.
  
 Copyright (c) 1988,1990,1992,1993,1995,1998,2003,2009,2010,
            Gaussian, Inc.  All Rights Reserved.
  
 This is part of the Gaussian(R) 09 program.  It is based on
 the Gaussian(R) 03 system (copyright 2003, Gaussian, Inc.),
 the Gaussian(R) 98 system (copyright 1998, Gaussian, Inc.),
 the Gaussian(R) 94 system (copyright 1995, Gaussian, Inc.),
 the Gaussian 92(TM) system (copyright 1992, Gaussian, Inc.),
 the Gaussian 90(TM) system (copyright 1990, Gaussian, Inc.),
 the Gaussian 88(TM) system (copyright 1988, Gaussian, Inc.),
 the Gaussian 86(TM) system (copyright 1986, Carnegie Mellon
 University), and the Gaussian 82(TM) system (copyright 1983,
 Carnegie Mellon University). Gaussian is a federally registered
 trademark of Gaussian, Inc.
  
 This software contains proprietary and confidential information,
 including trade secrets, belonging to Gaussian, Inc.
  
 This software is provided under written license and may be
 used, copied, transmitted, or stored only in accord with that
 written license.
  
 The following legend is applicable only to US Government
 contracts under FAR:
  
                    RESTRICTED RIGHTS LEGEND
  
 Use, reproduction and disclosure by the US Government is
 subject to restrictions as set forth in subparagraphs (a)
 and (c) of the Commercial Computer Software - Restricted
 Rights clause in FAR 52.227-19.
  
 Gaussian, Inc.
 340 Quinnipiac St., Bldg. 40, Wallingford CT 06492
  
  
 ---------------------------------------------------------------
 Warning -- This program may not be used in any manner that
 competes with the business of Gaussian, Inc. or will provide
 assistance to any competitor of Gaussian, Inc.  The licensee
 of this program is prohibited from giving any competitor of
 Gaussian, Inc. access to this program.  By using this program,
 the user acknowledges that Gaussian, Inc. is engaged in the
 business of creating and licensing software in the field of
 computational chemistry and represents and warrants to the
 licensee that it is not a competitor of Gaussian, Inc. and that
 it will not use this program in any manner prohibited above.
 ---------------------------------------------------------------
  

 Cite this work as:
 Gaussian 09, Revision B.01,
 M. J. Frisch, G. W. Trucks, H. B. Schlegel, G. E. Scuseria, 
 M. A. Robb, J. R. Cheeseman, G. Scalmani, V. Barone, B. Mennucci, 
 G. A. Petersson, H. Nakatsuji, M. Caricato, X. Li, H. P. Hratchian, 
 A. F. Izmaylov, J. Bloino, G. Zheng, J. L. Sonnenberg, M. Hada, 
 M. Ehara, K. Toyota, R. Fukuda, J. Hasegawa, M. Ishida, T. Nakajima, 
 Y. Honda, O. Kitao, H. Nakai, T. Vreven, J. A. Montgomery, Jr., 
 J. E. Peralta, F. Ogliaro, M. Bearpark, J. J. Heyd, E. Brothers, 
 K. N. Kudin, V. N. Staroverov, T. Keith, R. Kobayashi, J. Normand, 
 K. Raghavachari, A. Rendell, J. C. Burant, S. S. Iyengar, J. Tomasi, 
 M. Cossi, N. Rega, J. M. Millam, M. Klene, J. E. Knox, J. B. Cross, 
 V. Bakken, C. Adamo, J. Jaramillo, R. Gomperts, R. E. Stratmann, 
 O. Yazyev, A. J. Austin, R. Cammi, C. Pomelli, J. W. Ochterski, 
 R. L. Martin, K. Morokuma, V. G. Zakrzewski, G. A. Voth, 
 P. Salvador, J. J. Dannenberg, S. Dapprich, A. D. Daniels, 
 O. Farkas, J. B. Foresman, J. V. Ortiz, J. Cioslowski, 
 and D. J. Fox, Gaussian, Inc., Wallingford CT, 2010.
 
 ******************************************
 Gaussian 09:  EM64L-G09RevB.01 12-Aug-2010
                28-Nov-2024 
 ******************************************
 %chk=dvb_hirshfeld.chk
 ----------------------------
 #p hf/sto-3g pop=(hirshfeld)
 ----------------------------
 1/38=1/1;
 2/12=2,17=6,18=5,40=1/2;
 3/6=3,11=9,16=1,25=1,30=1/1,2,3;
 4//1;
 5/5=2,38=5/2;
 6/7=2,8=2,9=2,10=2,28=1,79=1/1;
 99/5=1,9=1/99;
 Leave Link    1 at Thu Nov 28 12:56:04 2024, MaxMem=          0 cpu:       0.0
 (Enter /gaussian/g09B.01/g09/l101.exe)
 ---
 dvb
 ---
 Symbolic Z-matrix:
 Charge =  0 Multiplicity = 1
 C                     1.39202   0.23274   0. 
 C                     0.48144   1.2909    0. 
 C                    -0.882     1.06597   0. 
 C                    -1.39202  -0.23274   0. 
 C                    -0.48144  -1.2909    0. 
 C                     0.882    -1.06597   0. 
 H                     0.85254   2.30785   0. 
 H                    -1.55498   1.91226   0. 
 H                    -0.85254  -2.30785   0. 
 H                     1.55498  -1.91226   0. 
 C                    -2.85785  -0.53198   0. 
 C                    -3.83979   0.34049   0. 
 H                    -3.09526  -1.59005   0. 
 H                    -4.87308   0.02259   0. 
 H                    -3.67996   1.40894   0. 
 C                     2.85785   0.53198   0. 
 C                     3.83979  -0.34049   0. 
 H                     3.09526   1.59005   0. 
 H                     4.87308  -0.02259   0. 
 H                     3.67996  -1.40894   0. 
 
 NAtoms=     20 NQM=     20 NQMF=      0 NMic=      0 NMicF=      0 NTot=     20.
                    Isotopes and Nuclear Properties:
 (Nuclear quadrupole moments (NQMom) in fm**2, nuclear magnetic moments (NMagM)
  in nuclear magnetons)

  Atom         1           2           3           4           5           6           7           8           9          10
 IAtWgt=          12          12          12          12          12          12           1           1           1           1
 AtmWgt=  12.0000000  12.0000000  12.0000000  12.0000000  12.0000000  12.0000000   1.0078250   1.0078250   1.0078250   1.0078250
 NucSpn=           0           0           0           0           0           0           1           1           1           1
 AtZEff=   0.0000000   0.0000000   0.0000000   0.0000000   0.0000000   0.0000000   0.0000000   0.0000000   0.0000000   0.0000000
 NQMom=    0.0000000   0.0000000   0.0000000   0.0000000   0.0000000   0.0000000   0.0000000   0.0000000   0.0000000   0.0000000
 NMagM=    0.0000000   0.0000000   0.0000000   0.0000000   0.0000000   0.0000000   2.7928460   2.7928460   2.7928460   2.7928460

  Atom        11          12          13          14          15          16          17          18          19          20
 IAtWgt=          12          12           1           1           1          12          12           1           1           1
 AtmWgt=  12.0000000  12.0000000   1.0078250   1.0078250   1.0078250  12.0000000  12.0000000   1.0078250   1.0078250   1.0078250
 NucSpn=           0           0           1           1           1           0           0           1           1           1
 AtZEff=   0.0000000   0.0000000   0.0000000   0.0000000   0.0000000   0.0000000   0.0000000   0.0000000   0.0000000   0.0000000
 NQMom=    0.0000000   0.0000000   0.0000000   0.0000000   0.0000000   0.0000000   0.0000000   0.0000000   0.0000000   0.0000000
 NMagM=    0.0000000   0.0000000   2.7928460   2.7928460   2.7928460   0.0000000   0.0000000   2.7928460   2.7928460   2.7928460
 Leave Link  101 at Thu Nov 28 12:56:04 2024, MaxMem=   33554432 cpu:       0.1
 (Enter /gaussian/g09B.01/g09/l202.exe)
                          Input orientation:                          
 ---------------------------------------------------------------------
 Center     Atomic      Atomic             Coordinates (Angstroms)
 Number     Number       Type             X           Y           Z
 ---------------------------------------------------------------------
      1          6           0        1.392016    0.232737    0.000000
      2          6           0        0.481441    1.290898    0.000000
      3          6           0       -0.882000    1.065971    0.000000
      4          6           0       -1.392016   -0.232737    0.000000
      5          6           0       -0.481441   -1.290898    0.000000
      6          6           0        0.882000   -1.065971    0.000000
      7          1           0        0.852540    2.307850    0.000000
      8          1           0       -1.554976    1.912255    0.000000
      9          1           0       -0.852540   -2.307850    0.000000
     10          1           0        1.554976   -1.912255    0.000000
     11          6           0       -2.857848   -0.531983    0.000000
     12          6           0       -3.839788    0.340494    0.000000
     13          1           0       -3.095257   -1.590048    0.000000
     14          1           0       -4.873080    0.022593    0.000000
     15          1           0       -3.679961    1.408936    0.000000
     16          6           0        2.857848    0.531983    0.000000
     17          6           0        3.839788   -0.340494    0.000000
     18          1           0        3.095257    1.590048    0.000000
     19          1           0        4.873080   -0.022593    0.000000
     20          1           0        3.679961   -1.408936    0.000000
 ---------------------------------------------------------------------
                    Distance matrix (angstroms):
                    1          2          3          4          5
     1  C    0.000000
     2  C    1.396012   0.000000
     3  C    2.421865   1.381870   0.000000
     4  C    2.822676   2.414810   1.395263   0.000000
     5  C    2.414810   2.755506   2.390665   1.396012   0.000000
     6  C    1.395263   2.390665   2.767106   2.421865   1.381870
     7  H    2.144092   1.082546   2.133282   3.390076   3.838033
     8  H    3.391982   2.129103   1.081246   2.151173   3.378263
     9  H    3.390076   3.838033   3.373950   2.144092   1.082546
    10  H    2.151173   3.378263   3.848205   3.391982   2.129103
    11  C    4.318118   3.804438   2.541148   1.496066   2.494646
    12  C    5.232914   4.424510   3.045460   2.513997   3.733622
    13  H    4.843363   4.592671   3.457303   2.177917   2.630879
    14  H    6.268620   5.502681   4.125210   3.490416   4.583858
    15  H    5.206573   4.163076   2.818903   2.815987   4.185646
    16  C    1.496066   2.494646   3.777778   4.318118   3.804438
    17  C    2.513997   3.733622   4.926807   5.232914   4.424510
    18  H    2.177917   2.630879   4.011637   4.843363   4.592671
    19  H    3.490416   4.583858   5.857126   6.268620   5.502681
    20  H    2.815987   4.185646   5.190054   5.206573   4.163076
                    6          7          8          9         10
     6  C    0.000000
     7  H    3.373950   0.000000
     8  H    3.848205   2.439801   0.000000
     9  H    2.133282   4.920568   4.278166   0.000000
    10  H    1.081246   4.278166   4.929369   2.439801   0.000000
    11  C    3.777778   4.672434   2.769797   2.678612   4.623653
    12  C    4.926807   5.088068   2.773229   3.992165   5.846226
    13  H    4.011637   5.547857   3.826042   2.354786   4.661382
    14  H    5.857126   6.164830   3.818460   4.647119   6.712939
    15  H    5.190054   4.620781   2.183779   4.669991   6.199587
    16  C    2.541148   2.678612   4.623653   4.672434   2.769797
    17  C    3.045460   3.992165   5.846226   5.088068   2.773229
    18  H    3.457303   2.354786   4.661382   5.547857   3.826042
    19  H    4.125210   4.647119   6.712939   6.164830   3.818460
    20  H    2.818903   4.669991   6.199587   4.620781   2.183779
                   11         12         13         14         15
    11  C    0.000000
    12  C    1.313554   0.000000
    13  H    1.084373   2.069135   0.000000
    14  H    2.090147   1.081089   2.400264   0.000000
    15  H    2.107852   1.080330   3.055452   1.829066   0.000000
    16  C    5.813881   6.700373   6.320006   7.747692   6.596362
    17  C    6.700373   7.709710   7.046718   8.720430   7.720566
    18  H    6.320006   7.046718   6.959560   8.121042   6.777639
    19  H    7.747692   8.720430   8.121042   9.746265   8.672012
    20  H    6.596362   7.720566   6.777639   8.672012   7.880918
                   16         17         18         19         20
    16  C    0.000000
    17  C    1.313554   0.000000
    18  H    1.084373   2.069135   0.000000
    19  H    2.090147   1.081089   2.400264   0.000000
    20  H    2.107852   1.080330   3.055452   1.829066   0.000000
 Stoichiometry    C10H10
 Framework group  C2H[SGH(C10H10)]
 Deg. of freedom    19
 Full point group                 C2H     NOp   4
 Largest Abelian subgroup         C2H     NOp   4
 Largest concise Abelian subgroup C2      NOp   2
                         Standard orientation:                         
 ---------------------------------------------------------------------
 Center     Atomic      Atomic             Coordinates (Angstroms)
 Number     Number       Type             X           Y           Z
 ---------------------------------------------------------------------
      1          6           0        1.210613    0.725460    0.000000
      2          6           0       -0.023742    1.377548    0.000000
      3          6           0       -1.210613    0.669803    0.000000
      4          6           0       -1.210613   -0.725460    0.000000
      5          6           0        0.023742   -1.377548    0.000000
      6          6           0        1.210613   -0.669803    0.000000
      7          1           0       -0.050055    2.459775    0.000000
      8          1           0       -2.146363    1.211527    0.000000
      9          1           0        0.050055   -2.459775    0.000000
     10          1           0        2.146363   -1.211527    0.000000
     11          6           0       -2.465621   -1.539809    0.000000
     12          6           0       -3.698529   -1.086641    0.000000
     13          1           0       -2.299843   -2.611435    0.000000
     14          1           0       -4.544112   -1.760246    0.000000
     15          1           0       -3.940315   -0.033715    0.000000
     16          6           0        2.465621    1.539809    0.000000
     17          6           0        3.698529    1.086641    0.000000
     18          1           0        2.299843    2.611435    0.000000
     19          1           0        4.544112    1.760246    0.000000
     20          1           0        3.940315    0.033715    0.000000
 ---------------------------------------------------------------------
 Rotational constants (GHZ):      4.7978428      0.7005241      0.6112733
 Leave Link  202 at Thu Nov 28 12:56:04 2024, MaxMem=   33554432 cpu:       0.0
 (Enter /gaussian/g09B.01/g09/l301.exe)
 Standard basis: STO-3G (5D, 7F)
 Ernie: Thresh=  0.10000D-02 Tol=  0.10000D-05 Strict=F.
 There are    25 symmetry adapted basis functions of AG  symmetry.
 There are     5 symmetry adapted basis functions of BG  symmetry.
 There are     5 symmetry adapted basis functions of AU  symmetry.
 There are    25 symmetry adapted basis functions of BU  symmetry.
 Integral buffers will be    131072 words long.
 Raffenetti 1 integral format.
 Two-electron integral symmetry is turned on.
    60 basis functions,   180 primitive gaussians,    60 cartesian basis functions
    35 alpha electrons       35 beta electrons
       nuclear repulsion energy       452.1489640845 Hartrees.
 IExCor=    0 DFT=F Ex=HF Corr=None ExCW=0 ScaHFX=  1.000000
 ScaDFX=  1.000000  1.000000  1.000000  1.000000 ScalE2=  1.000000  1.000000
 IRadAn=      0 IRanWt=     -1 IRanGd=            0 ICorTp=0
 NAtoms=   20 NActive=   20 NUniq=   10 SFac= 4.00D+00 NAtFMM=   50 NAOKFM=F Big=F
 Leave Link  301 at Thu Nov 28 12:56:04 2024, MaxMem=   33554432 cpu:       0.0
 (Enter /gaussian/g09B.01/g09/l302.exe)
 NPDir=0 NMtPBC=     1 NCelOv=     1 NCel=       1 NClECP=     1 NCelD=      1
         NCelK=      1 NCelE2=     1 NClLst=     1 CellRange=     0.0.
 One-electron integrals computed using PRISM.
 One-electron integral symmetry used in STVInt
 NBasis=    60 RedAO= T  NBF=    25     5     5    25
 NBsUse=    60 1.00D-06 NBFU=    25     5     5    25
 Leave Link  302 at Thu Nov 28 12:56:05 2024, MaxMem=   33554432 cpu:       0.1
 (Enter /gaussian/g09B.01/g09/l303.exe)
 DipDrv:  MaxL=1.
 Leave Link  303 at Thu Nov 28 12:56:05 2024, MaxMem=   33554432 cpu:       0.0
 (Enter /gaussian/g09B.01/g09/l401.exe)
 Harris functional with IExCor=  205 diagonalized for initial guess.
 ExpMin= 1.69D-01 ExpMax= 7.16D+01 ExpMxC= 7.16D+01 IAcc=1 IRadAn=         1 AccDes= 0.00D+00
 HarFok:  IExCor=  205 AccDes= 0.00D+00 IRadAn=         1 IDoV= 1
 ScaDFX=  1.000000  1.000000  1.000000  1.000000
 FoFCou: FMM=F IPFlag=           0 FMFlag=      100000 FMFlg1=           0
         NFxFlg=           0 DoJE=T BraDBF=F KetDBF=T FulRan=T
         Omega=  0.000000  0.000000  1.000000  0.000000  0.000000 ICntrl=     500 IOpCl=  0
         NMat0=    1 NMatS0=    1 NMatT0=    0 NMatD0=    1 NMtDS0=    0 NMtDT0=    0
         I1Cent=           4 NGrid=           0.
 Petite list used in FoFCou.
 Harris En= -380.294491519835    
 Initial guess orbital symmetries:
       Occupied  (BU) (AG) (BU) (AG) (AG) (BU) (BU) (AG) (BU) (AG)
                 (AG) (BU) (AG) (BU) (BU) (AG) (AG) (BU) (AG) (AG)
                 (BU) (BU) (AG) (BU) (BU) (BU) (AG) (AU) (AG) (BU)
                 (AG) (BG) (AU) (BG) (BG)
       Virtual   (AU) (AU) (BG) (AU) (BG) (AG) (BU) (BU) (AG) (AG)
                 (BU) (BU) (AG) (BU) (AG) (AG) (BU) (BU) (AG) (AG)
                 (BU) (AG) (BU) (AG) (BU)
 The electronic state of the initial guess is 1-AG.
 Leave Link  401 at Thu Nov 28 12:56:05 2024, MaxMem=   33554432 cpu:       0.1
 (Enter /gaussian/g09B.01/g09/l502.exe)
 Closed shell SCF:
 Requested convergence on RMS density matrix=1.00D-08 within 128 cycles.
 Requested convergence on MAX density matrix=1.00D-06.
 Requested convergence on             energy=1.00D-06.
 No special actions if energy rises.
 Using DIIS extrapolation, IDIIS=  1040.
 Integral symmetry usage will be decided dynamically.
 Keep R1 ints in memory in canonical form, NReq=2505325.
 IEnd=       29946 IEndB=       29946 NGot=    33554432 MDV=    31869394
 LenX=    31869394 LenY=    31865353
 Symmetry not used in FoFDir.
 MinBra= 0 MaxBra= 1 Meth= 1.
 IRaf=       0 NMat=   1 IRICut=       1 DoRegI=T DoRafI=F ISym2E= 0 JSym2E=0.

 Cycle   1  Pass 1  IDiag  1:
 E= -379.644277599514    
 DIIS: error= 5.19D-02 at cycle   1 NSaved=   1.
 NSaved= 1 IEnMin= 1 EnMin= -379.644277599514     IErMin= 1 ErrMin= 5.19D-02
 ErrMax= 5.19D-02 EMaxC= 1.00D-01 BMatC= 1.60D-01 BMatP= 1.60D-01
 IDIUse=3 WtCom= 4.81D-01 WtEn= 5.19D-01
 Coeff-Com:  0.100D+01
 Coeff-En:   0.100D+01
 Coeff:      0.100D+01
 Gap=     0.431 Goal=   None    Shift=    0.000
 GapD=    0.431 DampG=2.000 DampE=0.500 DampFc=1.0000 IDamp=-1.
 RMSDP=7.57D-03 MaxDP=9.44D-02              OVMax= 9.05D-03

 Cycle   2  Pass 1  IDiag  1:
 E= -379.776021461176     Delta-E=       -0.131743861663 Rises=F Damp=F
 DIIS: error= 5.33D-03 at cycle   2 NSaved=   2.
 NSaved= 2 IEnMin= 2 EnMin= -379.776021461176     IErMin= 2 ErrMin= 5.33D-03
 ErrMax= 5.33D-03 EMaxC= 1.00D-01 BMatC= 1.63D-03 BMatP= 1.60D-01
 IDIUse=3 WtCom= 9.47D-01 WtEn= 5.33D-02
 Coeff-Com: -0.209D-01 0.102D+01
 Coeff-En:   0.000D+00 0.100D+01
 Coeff:     -0.198D-01 0.102D+01
 Gap=     0.437 Goal=   None    Shift=    0.000
 RMSDP=1.00D-03 MaxDP=1.22D-02 DE=-1.32D-01 OVMax= 1.78D-02

 Cycle   3  Pass 1  IDiag  1:
 E= -379.777625773053     Delta-E=       -0.001604311877 Rises=F Damp=F
 DIIS: error= 2.52D-03 at cycle   3 NSaved=   3.
 NSaved= 3 IEnMin= 3 EnMin= -379.777625773053     IErMin= 3 ErrMin= 2.52D-03
 ErrMax= 2.52D-03 EMaxC= 1.00D-01 BMatC= 2.33D-04 BMatP= 1.63D-03
 IDIUse=3 WtCom= 9.75D-01 WtEn= 2.52D-02
 Coeff-Com: -0.132D-01 0.230D+00 0.783D+00
 Coeff-En:   0.000D+00 0.000D+00 0.100D+01
 Coeff:     -0.129D-01 0.224D+00 0.789D+00
 Gap=     0.439 Goal=   None    Shift=    0.000
 RMSDP=3.71D-04 MaxDP=6.14D-03 DE=-1.60D-03 OVMax= 2.53D-03

 Cycle   4  Pass 1  IDiag  1:
 E= -379.777927259345     Delta-E=       -0.000301486292 Rises=F Damp=F
 DIIS: error= 7.20D-04 at cycle   4 NSaved=   4.
 NSaved= 4 IEnMin= 4 EnMin= -379.777927259345     IErMin= 4 ErrMin= 7.20D-04
 ErrMax= 7.20D-04 EMaxC= 1.00D-01 BMatC= 1.37D-05 BMatP= 2.33D-04
 IDIUse=3 WtCom= 9.93D-01 WtEn= 7.20D-03
 Coeff-Com:  0.971D-03-0.563D-01 0.779D-01 0.977D+00
 Coeff-En:   0.000D+00 0.000D+00 0.000D+00 0.100D+01
 Coeff:      0.964D-03-0.559D-01 0.773D-01 0.978D+00
 Gap=     0.440 Goal=   None    Shift=    0.000
 RMSDP=1.02D-04 MaxDP=1.40D-03 DE=-3.01D-04 OVMax= 2.19D-03

 Cycle   5  Pass 1  IDiag  1:
 E= -379.777953768783     Delta-E=       -0.000026509437 Rises=F Damp=F
 DIIS: error= 1.55D-04 at cycle   5 NSaved=   5.
 NSaved= 5 IEnMin= 5 EnMin= -379.777953768783     IErMin= 5 ErrMin= 1.55D-04
 ErrMax= 1.55D-04 EMaxC= 1.00D-01 BMatC= 3.88D-07 BMatP= 1.37D-05
 IDIUse=3 WtCom= 9.98D-01 WtEn= 1.55D-03
 Coeff-Com:  0.349D-03-0.258D-02-0.422D-01-0.140D+00 0.118D+01
 Coeff-En:   0.000D+00 0.000D+00 0.000D+00 0.000D+00 0.100D+01
 Coeff:      0.349D-03-0.257D-02-0.421D-01-0.140D+00 0.118D+01
 Gap=     0.440 Goal=   None    Shift=    0.000
 RMSDP=3.10D-05 MaxDP=5.46D-04 DE=-2.65D-05 OVMax= 5.27D-04

 Cycle   6  Pass 1  IDiag  1:
 E= -379.777955328645     Delta-E=       -0.000001559862 Rises=F Damp=F
 DIIS: error= 2.43D-05 at cycle   6 NSaved=   6.
 NSaved= 6 IEnMin= 6 EnMin= -379.777955328645     IErMin= 6 ErrMin= 2.43D-05
 ErrMax= 2.43D-05 EMaxC= 1.00D-01 BMatC= 1.78D-08 BMatP= 3.88D-07
 IDIUse=1 WtCom= 1.00D+00 WtEn= 0.00D+00
 Coeff-Com: -0.229D-04 0.188D-02-0.440D-02-0.438D-01 0.753D-01 0.971D+00
 Coeff:     -0.229D-04 0.188D-02-0.440D-02-0.438D-01 0.753D-01 0.971D+00
 Gap=     0.440 Goal=   None    Shift=    0.000
 RMSDP=4.82D-06 MaxDP=7.77D-05 DE=-1.56D-06 OVMax= 9.53D-05

 Cycle   7  Pass 1  IDiag  1:
 E= -379.777955375465     Delta-E=       -0.000000046821 Rises=F Damp=F
 DIIS: error= 6.66D-06 at cycle   7 NSaved=   7.
 NSaved= 7 IEnMin= 7 EnMin= -379.777955375465     IErMin= 7 ErrMin= 6.66D-06
 ErrMax= 6.66D-06 EMaxC= 1.00D-01 BMatC= 1.08D-09 BMatP= 1.78D-08
 IDIUse=1 WtCom= 1.00D+00 WtEn= 0.00D+00
 Coeff-Com: -0.251D-04 0.198D-03 0.361D-02 0.102D-01-0.907D-01-0.952D-02
 Coeff-Com:  0.109D+01
 Coeff:     -0.251D-04 0.198D-03 0.361D-02 0.102D-01-0.907D-01-0.952D-02
 Coeff:      0.109D+01
 Gap=     0.440 Goal=   None    Shift=    0.000
 RMSDP=1.39D-06 MaxDP=1.97D-05 DE=-4.68D-08 OVMax= 1.58D-05

 Cycle   8  Pass 1  IDiag  1:
 E= -379.777955378349     Delta-E=       -0.000000002884 Rises=F Damp=F
 DIIS: error= 5.74D-07 at cycle   8 NSaved=   8.
 NSaved= 8 IEnMin= 8 EnMin= -379.777955378349     IErMin= 8 ErrMin= 5.74D-07
 ErrMax= 5.74D-07 EMaxC= 1.00D-01 BMatC= 2.38D-11 BMatP= 1.08D-09
 IDIUse=1 WtCom= 1.00D+00 WtEn= 0.00D+00
 Coeff-Com: -0.232D-05-0.103D-04 0.521D-03 0.158D-02-0.104D-01-0.229D-01
 Coeff-Com:  0.116D+00 0.915D+00
 Coeff:     -0.232D-05-0.103D-04 0.521D-03 0.158D-02-0.104D-01-0.229D-01
 Coeff:      0.116D+00 0.915D+00
 Gap=     0.440 Goal=   None    Shift=    0.000
 RMSDP=1.36D-07 MaxDP=1.69D-06 DE=-2.88D-09 OVMax= 1.73D-06

 Cycle   9  Pass 1  IDiag  1:
 E= -379.777955378389     Delta-E=       -0.000000000040 Rises=F Damp=F
 DIIS: error= 2.38D-07 at cycle   9 NSaved=   9.
 NSaved= 9 IEnMin= 9 EnMin= -379.777955378389     IErMin= 9 ErrMin= 2.38D-07
 ErrMax= 2.38D-07 EMaxC= 1.00D-01 BMatC= 2.13D-12 BMatP= 2.38D-11
 IDIUse=1 WtCom= 1.00D+00 WtEn= 0.00D+00
 Coeff-Com:  0.154D-05-0.513D-05-0.249D-03-0.998D-03 0.691D-02 0.479D-02
 Coeff-Com: -0.724D-01-0.265D+00 0.133D+01
 Coeff:      0.154D-05-0.513D-05-0.249D-03-0.998D-03 0.691D-02 0.479D-02
 Coeff:     -0.724D-01-0.265D+00 0.133D+01
 Gap=     0.440 Goal=   None    Shift=    0.000
 RMSDP=5.45D-08 MaxDP=8.05D-07 DE=-4.02D-11 OVMax= 5.45D-07

 Cycle  10  Pass 1  IDiag  1:
 E= -379.777955378394     Delta-E=       -0.000000000005 Rises=F Damp=F
 DIIS: error= 6.62D-08 at cycle  10 NSaved=  10.
 NSaved=10 IEnMin=10 EnMin= -379.777955378394     IErMin=10 ErrMin= 6.62D-08
 ErrMax= 6.62D-08 EMaxC= 1.00D-01 BMatC= 1.64D-13 BMatP= 2.13D-12
 IDIUse=1 WtCom= 1.00D+00 WtEn= 0.00D+00
 Coeff-Com: -0.322D-06 0.141D-05 0.589D-04 0.171D-03-0.138D-02-0.101D-02
 Coeff-Com:  0.178D-01 0.235D-01-0.352D+00 0.131D+01
 Coeff:     -0.322D-06 0.141D-05 0.589D-04 0.171D-03-0.138D-02-0.101D-02
 Coeff:      0.178D-01 0.235D-01-0.352D+00 0.131D+01
 Gap=     0.440 Goal=   None    Shift=    0.000
 RMSDP=1.57D-08 MaxDP=2.46D-07 DE=-4.89D-12 OVMax= 2.51D-07

 Cycle  11  Pass 1  IDiag  1:
 E= -379.777955378394     Delta-E=        0.000000000000 Rises=F Damp=F
 DIIS: error= 1.49D-08 at cycle  11 NSaved=  11.
 NSaved=11 IEnMin=11 EnMin= -379.777955378394     IErMin=11 ErrMin= 1.49D-08
 ErrMax= 1.49D-08 EMaxC= 1.00D-01 BMatC= 1.40D-14 BMatP= 1.64D-13
 IDIUse=1 WtCom= 1.00D+00 WtEn= 0.00D+00
 Coeff-Com: -0.230D-06 0.715D-06 0.409D-04 0.142D-03-0.104D-02-0.864D-03
 Coeff-Com:  0.121D-01 0.316D-01-0.221D+00 0.249D+00 0.930D+00
 Coeff:     -0.230D-06 0.715D-06 0.409D-04 0.142D-03-0.104D-02-0.864D-03
 Coeff:      0.121D-01 0.316D-01-0.221D+00 0.249D+00 0.930D+00
 Gap=     0.440 Goal=   None    Shift=    0.000
 RMSDP=4.38D-09 MaxDP=6.17D-08 DE=-2.27D-13 OVMax= 6.31D-08

 SCF Done:  E(RHF) =  -379.777955378     A.U. after   11 cycles
             Convg  =    0.4383D-08             -V/T =  2.0079
 KE= 3.768011376107D+02 PE=-1.789005563379D+03 EE= 5.802775063055D+02
 Leave Link  502 at Thu Nov 28 12:56:05 2024, MaxMem=   33554432 cpu:       0.2
 (Enter /gaussian/g09B.01/g09/l601.exe)
 Copying SCF densities to generalized density rwf, IOpCl= 0 IROHF=0.

 **********************************************************************

            Population analysis using the SCF density.

 **********************************************************************

 Orbital symmetries:
       Occupied  (BU) (AG) (BU) (AG) (BU) (AG) (BU) (AG) (BU) (AG)
                 (AG) (BU) (AG) (BU) (BU) (AG) (AG) (BU) (AG) (AG)
                 (BU) (BU) (BU) (AG) (BU) (BU) (AG) (AU) (BU) (AG)
                 (AG) (BG) (AU) (BG) (BG)
       Virtual   (AU) (AU) (BG) (AU) (BG) (AG) (BU) (BU) (AG) (AG)
                 (BU) (BU) (AG) (BU) (AG) (AG) (BU) (AG) (BU) (BU)
                 (AG) (AG) (BU) (AG) (BU)
 The electronic state is 1-AG.
 Alpha  occ. eigenvalues --  -11.04092 -11.04085 -11.03237 -11.03237 -11.02892
 Alpha  occ. eigenvalues --  -11.02879 -11.02834 -11.02830 -11.01795 -11.01795
 Alpha  occ. eigenvalues --   -1.10667  -1.03176  -0.98848  -0.96096  -0.92267
 Alpha  occ. eigenvalues --   -0.80642  -0.77126  -0.73300  -0.70726  -0.63919
 Alpha  occ. eigenvalues --   -0.61512  -0.57762  -0.56384  -0.56290  -0.53252
 Alpha  occ. eigenvalues --   -0.50741  -0.49814  -0.47728  -0.44868  -0.42593
 Alpha  occ. eigenvalues --   -0.41821  -0.38686  -0.32693  -0.28560  -0.23322
 Alpha virt. eigenvalues --    0.20696   0.27320   0.31862   0.40606   0.53753
 Alpha virt. eigenvalues --    0.56856   0.58281   0.63237   0.63488   0.68248
 Alpha virt. eigenvalues --    0.68424   0.69308   0.72191   0.73261   0.76753
 Alpha virt. eigenvalues --    0.82934   0.85356   0.88440   0.91812   0.94958
 Alpha virt. eigenvalues --    0.96486   1.02419   1.06833   1.14780   1.16473
          Condensed to atoms (all electrons):
              1          2          3          4          5          6
     1  C    4.758972   0.503212  -0.029237  -0.010491  -0.029480   0.502063
     2  C    0.503212   4.780971   0.515689  -0.029480  -0.012205  -0.033408
     3  C   -0.029237   0.515689   4.777247   0.502063  -0.033408  -0.011546
     4  C   -0.010491  -0.029480   0.502063   4.758972   0.503212  -0.029237
     5  C   -0.029480  -0.012205  -0.033408   0.503212   4.780971   0.515689
     6  C    0.502063  -0.033408  -0.011546  -0.029237   0.515689   4.777247
     7  H   -0.026356   0.394897  -0.026349   0.001416   0.000042   0.001437
     8  H    0.001414  -0.026488   0.395018  -0.025468   0.001442   0.000034
     9  H    0.001416   0.000042   0.001437  -0.026356   0.394897  -0.026349
    10  H   -0.025468   0.001442   0.000034   0.001414  -0.026488   0.395018
    11  C    0.000015   0.000797  -0.024783   0.404537  -0.029625   0.000868
    12  C    0.000000   0.000014  -0.003731  -0.024708   0.000715  -0.000008
    13  H   -0.000001  -0.000018   0.001088  -0.026443  -0.004014   0.000024
    14  H    0.000000   0.000000   0.000014   0.001359  -0.000017   0.000000
    15  H    0.000000  -0.000008  -0.000686  -0.003596   0.000014   0.000000
    16  C    0.404537  -0.029625   0.000868   0.000015   0.000797  -0.024783
    17  C   -0.024708   0.000715  -0.000008   0.000000   0.000014  -0.003731
    18  H   -0.026443  -0.004014   0.000024  -0.000001  -0.000018   0.001088
    19  H    0.001359  -0.000017   0.000000   0.000000   0.000000   0.000014
    20  H   -0.003596   0.000014   0.000000   0.000000  -0.000008  -0.000686
              7          8          9         10         11         12
     1  C   -0.026356   0.001414   0.001416  -0.025468   0.000015   0.000000
     2  C    0.394897  -0.026488   0.000042   0.001442   0.000797   0.000014
     3  C   -0.026349   0.395018   0.001437   0.000034  -0.024783  -0.003731
     4  C    0.001416  -0.025468  -0.026356   0.001414   0.404537  -0.024708
     5  C    0.000042   0.001442   0.394897  -0.026488  -0.029625   0.000715
     6  C    0.001437   0.000034  -0.026349   0.395018   0.000868  -0.000008
     7  H    0.601605  -0.004171   0.000002  -0.000036  -0.000015   0.000000
     8  H   -0.004171   0.599247  -0.000036   0.000002  -0.003170  -0.000786
     9  H    0.000002  -0.000036   0.601605  -0.004171  -0.004200   0.000037
    10  H   -0.000036   0.000002  -0.004171   0.599247  -0.000016   0.000000
    11  C   -0.000015  -0.003170  -0.004200  -0.000016   4.766923   0.603449
    12  C    0.000000  -0.000786   0.000037   0.000000   0.603449   4.799332
    13  H    0.000000   0.000021   0.000524  -0.000001   0.392997  -0.029465
    14  H    0.000000  -0.000011  -0.000002   0.000000  -0.025634   0.394387
    15  H    0.000002  -0.000410   0.000001   0.000000  -0.025088   0.392383
    16  C   -0.004200  -0.000016  -0.000015  -0.003170   0.000000   0.000000
    17  C    0.000037   0.000000   0.000000  -0.000786   0.000000   0.000000
    18  H    0.000524  -0.000001   0.000000   0.000021   0.000000   0.000000
    19  H   -0.000002   0.000000   0.000000  -0.000011   0.000000   0.000000
    20  H    0.000001   0.000000   0.000002  -0.000410   0.000000   0.000000
             13         14         15         16         17         18
     1  C   -0.000001   0.000000   0.000000   0.404537  -0.024708  -0.026443
     2  C   -0.000018   0.000000  -0.000008  -0.029625   0.000715  -0.004014
     3  C    0.001088   0.000014  -0.000686   0.000868  -0.000008   0.000024
     4  C   -0.026443   0.001359  -0.003596   0.000015   0.000000  -0.000001
     5  C   -0.004014  -0.000017   0.000014   0.000797   0.000014  -0.000018
     6  C    0.000024   0.000000   0.000000  -0.024783  -0.003731   0.001088
     7  H    0.000000   0.000000   0.000002  -0.004200   0.000037   0.000524
     8  H    0.000021  -0.000011  -0.000410  -0.000016   0.000000  -0.000001
     9  H    0.000524  -0.000002   0.000001  -0.000015   0.000000   0.000000
    10  H   -0.000001   0.000000   0.000000  -0.003170  -0.000786   0.000021
    11  C    0.392997  -0.025634  -0.025088   0.000000   0.000000   0.000000
    12  C   -0.029465   0.394387   0.392383   0.000000   0.000000   0.000000
    13  H    0.607969  -0.005636   0.002153   0.000000   0.000000   0.000000
    14  H   -0.005636   0.595567  -0.024514   0.000000   0.000000   0.000000
    15  H    0.002153  -0.024514   0.597435   0.000000   0.000000   0.000000
    16  C    0.000000   0.000000   0.000000   4.766923   0.603449   0.392997
    17  C    0.000000   0.000000   0.000000   0.603449   4.799332  -0.029465
    18  H    0.000000   0.000000   0.000000   0.392997  -0.029465   0.607969
    19  H    0.000000   0.000000   0.000000  -0.025634   0.394387  -0.005636
    20  H    0.000000   0.000000   0.000000  -0.025088   0.392383   0.002153
             19         20
     1  C    0.001359  -0.003596
     2  C   -0.000017   0.000014
     3  C    0.000000   0.000000
     4  C    0.000000   0.000000
     5  C    0.000000  -0.000008
     6  C    0.000014  -0.000686
     7  H   -0.000002   0.000001
     8  H    0.000000   0.000000
     9  H    0.000000   0.000002
    10  H   -0.000011  -0.000410
    11  C    0.000000   0.000000
    12  C    0.000000   0.000000
    13  H    0.000000   0.000000
    14  H    0.000000   0.000000
    15  H    0.000000   0.000000
    16  C   -0.025634  -0.025088
    17  C    0.394387   0.392383
    18  H   -0.005636   0.002153
    19  H    0.595567  -0.024514
    20  H   -0.024514   0.597435
 Mulliken atomic charges:
              1
     1  C    0.002791
     2  C   -0.062530
     3  C   -0.063735
     4  C    0.002791
     5  C   -0.062530
     6  C   -0.063735
     7  H    0.061165
     8  H    0.063379
     9  H    0.061165
    10  H    0.063379
    11  C   -0.057056
    12  C   -0.131620
    13  H    0.060803
    14  H    0.064487
    15  H    0.062316
    16  C   -0.057056
    17  C   -0.131620
    18  H    0.060803
    19  H    0.064487
    20  H    0.062316
 Sum of Mulliken atomic charges =   0.00000
 Mulliken charges with hydrogens summed into heavy atoms:
              1
     1  C    0.002791
     2  C   -0.001364
     3  C   -0.000356
     4  C    0.002791
     5  C   -0.001364
     6  C   -0.000356
    11  C    0.003747
    12  C   -0.004818
    16  C    0.003747
    17  C   -0.004818
 Sum of Mulliken charges with hydrogens summed into heavy atoms =   0.00000
 Electronic spatial extent (au):  <R**2>=           1822.3417
 Charge=              0.0000 electrons
 Dipole moment (field-independent basis, Debye):
    X=              0.0000    Y=              0.0000    Z=              0.0000  Tot=              0.0000
 Quadrupole moment (field-independent basis, Debye-Ang):
   XX=            -52.6449   YY=            -51.8074   ZZ=            -58.4303
   XY=             -0.2218   XZ=              0.0000   YZ=              0.0000
 Traceless Quadrupole moment (field-independent basis, Debye-Ang):
   XX=              1.6493   YY=              2.4868   ZZ=             -4.1361
   XY=             -0.2218   XZ=              0.0000   YZ=              0.0000
 Octapole moment (field-independent basis, Debye-Ang**2):
  XXX=              0.0000  YYY=              0.0000  ZZZ=              0.0000  XYY=              0.0000
  XXY=              0.0000  XXZ=              0.0000  XZZ=              0.0000  YZZ=              0.0000
  YYZ=              0.0000  XYZ=              0.0000
 Hexadecapole moment (field-independent basis, Debye-Ang**3):
 XXXX=          -1683.9052 YYYY=           -534.3383 ZZZZ=            -47.3949 XXXY=           -260.9771
 XXXZ=              0.0000 YYYX=           -261.2940 YYYZ=              0.0000 ZZZX=              0.0000
 ZZZY=              0.0000 XXYY=           -365.4943 XXZZ=           -320.7013 YYZZ=           -108.7173
 XXYZ=              0.0000 YYXZ=              0.0000 ZZXY=            -98.2292
 N-N= 4.521489640845D+02 E-N=-1.789005563459D+03  KE= 3.768011376107D+02
 Symmetry AG   KE= 1.818917515435D+02
 Symmetry BG   KE= 7.818796755446D+00
 Symmetry AU   KE= 4.673549510168D+00
 Symmetry BU   KE= 1.824170398016D+02
 There are a total of      158344 grid points.
 ElSum from          density=       69.9999686849
 ElSum from atomic densities=       69.9999659361
 Hirshfeld populations (CA, CB, DipXYZ):
              1          2          3          4          5
     1  C    3.002154   3.002154  -0.200420  -0.091945   0.000000
     2  C    3.017170   3.017170   0.028211  -0.337662   0.000000
     3  C    3.016336   3.016336   0.287547  -0.184214   0.000000
     4  C    3.002154   3.002154   0.200420   0.091945   0.000000
     5  C    3.017170   3.017170  -0.028211   0.337662   0.000000
     6  C    3.016336   3.016336  -0.287547   0.184214   0.000000
     7  H    0.482765   0.482765   0.095914  -1.166389   0.000000
     8  H    0.482110   0.482110   0.928829  -0.660610   0.000000
     9  H    0.482765   0.482765  -0.095914   1.166389   0.000000
    10  H    0.482110   0.482110  -0.928829   0.660610   0.000000
    11  C    3.015970   3.015970  -0.124613   0.133521   0.000000
    12  C    3.033236   3.033236   0.323964  -0.110290   0.000000
    13  H    0.483474   0.483474  -0.109585   1.167085   0.000000
    14  H    0.483445   0.483445   0.909463   0.662418   0.000000
    15  H    0.483333   0.483333   0.383003  -1.020570   0.000000
    16  C    3.015970   3.015970   0.124613  -0.133521   0.000000
    17  C    3.033236   3.033236  -0.323964   0.110290   0.000000
    18  H    0.483474   0.483474   0.109585  -1.167085   0.000000
    19  H    0.483445   0.483445  -0.909463  -0.662418   0.000000
    20  H    0.483333   0.483333  -0.383003   1.020570   0.000000
       Tot  34.999984  34.999984   0.000000   0.000000   0.000000
 Hirshfeld spin densities, charges and dipoles using IRadAn=      4:
              1          2          3          4          5
     1  C    0.000000  -0.004307  -0.200420  -0.091945   0.000000
     2  C    0.000000  -0.034340   0.028211  -0.337662   0.000000
     3  C    0.000000  -0.032672   0.287547  -0.184214   0.000000
     4  C    0.000000  -0.004307   0.200420   0.091945   0.000000
     5  C    0.000000  -0.034340  -0.028211   0.337662   0.000000
     6  C    0.000000  -0.032672  -0.287547   0.184214   0.000000
     7  H    0.000000   0.034471   0.095914  -1.166389   0.000000
     8  H    0.000000   0.035779   0.928829  -0.660610   0.000000
     9  H    0.000000   0.034471  -0.095914   1.166389   0.000000
    10  H    0.000000   0.035779  -0.928829   0.660610   0.000000
    11  C    0.000000  -0.031939  -0.124613   0.133521   0.000000
    12  C    0.000000  -0.066473   0.323964  -0.110290   0.000000
    13  H    0.000000   0.033052  -0.109585   1.167085   0.000000
    14  H    0.000000   0.033111   0.909463   0.662418   0.000000
    15  H    0.000000   0.033334   0.383003  -1.020570   0.000000
    16  C    0.000000  -0.031939   0.124613  -0.133521   0.000000
    17  C    0.000000  -0.066473  -0.323964   0.110290   0.000000
    18  H    0.000000   0.033052   0.109585  -1.167085   0.000000
    19  H    0.000000   0.033111  -0.909463  -0.662418   0.000000
    20  H    0.000000   0.033334  -0.383003   1.020570   0.000000
       Tot   0.000000   0.000031   0.000000   0.000000   0.000000
 Dip from Atomic Chgs              0.000000   0.000000   0.000000
         Total Dipole              0.000000   0.000000   0.000000
 EQQ=-0.592354558135E-02 EQD=-0.173148606752     EDD= 0.404466508854    
 EQQ+QD+DD= 0.225394356521    
 Hirshfeld charges with hydrogens summed into heavy atoms:
              1
     1  C   -0.004307
     2  C    0.000130
     3  C    0.003108
     4  C   -0.004307
     5  C    0.000130
     6  C    0.003108
     7  H    0.000000
     8  H    0.000000
     9  H    0.000000
    10  H    0.000000
    11  C    0.001113
    12  C   -0.000028
    13  H    0.000000
    14  H    0.000000
    15  H    0.000000
    16  C    0.001113
    17  C   -0.000028
    18  H    0.000000
    19  H    0.000000
    20  H    0.000000
 Sum of Hirshfeld charges=  0.000031
 No NMR shielding tensors so no spin-rotation constants.
 Leave Link  601 at Thu Nov 28 12:56:06 2024, MaxMem=   33554432 cpu:       0.9
 (Enter /gaussian/g09B.01/g09/l9999.exe)
 1\1\GINC-UBUNTU\SP\RHF\STO-3G\C10H10\USER\28-Nov-2024\0\\#p hf/sto-3g 
 pop=(hirshfeld)\\dvb\\0,1\C,0,1.3920160306,0.2327370612,0.\C,0,0.48144
 14186,1.2908977162,0.\C,0,-0.8820001576,1.0659709386,0.\C,0,-1.3920160
 306,-0.2327370612,0.\C,0,-0.4814414186,-1.2908977162,0.\C,0,0.88200015
 76,-1.0659709386,0.\H,0,0.8525400378,2.3078502857,0.\H,0,-1.55497597,1
 .9122550356,0.\H,0,-0.8525400378,-2.3078502857,0.\H,0,1.55497597,-1.91
 22550356,0.\C,0,-2.8578480868,-0.5319834623,0.\C,0,-3.8397879449,0.340
 4940448,0.\H,0,-3.0952569946,-1.5900484451,0.\H,0,-4.8730803489,0.0225
 9307,0.\H,0,-3.6799612829,1.4089363613,0.\C,0,2.8578480868,0.531983462
 3,0.\C,0,3.8397879449,-0.3404940448,0.\H,0,3.0952569946,1.5900484451,0
 .\H,0,4.8730803489,-0.02259307,0.\H,0,3.6799612829,-1.4089363613,0.\\V
 ersion=EM64L-G09RevB.01\State=1-AG\HF=-379.7779554\RMSD=4.383e-09\Dipo
 le=0.,0.,0.\Quadrupole=1.1971975,1.877896,-3.0750935,0.0909743,0.,0.\P
 G=C02H [SGH(C10H10)]\\@


 ON INDUCTION, OR "WHY DO YOU BELIEVE THE SUN WILL RISE TOMORROW?":

 ... THE FARMER WHO HAS FED THE CHICKEN EVERY DAY THROUGHOUT ITS
 LIFE AT LAST WRINGS ITS NECK INSTEAD, SHOWING THAT MORE REFINED VIEWS
 AS TO THE UNIFORMITY OF NATURE WOULD HAVE BEEN USEFUL TO THE CHICKEN.

                               -- BERTRAND RUSSELL
 Job cpu time:  0 days  0 hours  0 minutes  1.6 seconds.
 File lengths (MBytes):  RWF=      5 Int=      0 D2E=      0 Chk=      1 Scr=      1
 Normal termination of Gaussian 09 at Thu Nov 28 12:56:06 2024.
