 Entering Gaussian System, Link 0=g09
 Initial command:
 /mf/frisch/g09/l1.exe "/altuv/s0/scratch/Gau-34175.inp" -scrdir="/altuv/s0/scratch/"
 Default CPUs for threads: 0
 Entering Link 1 = /mf/frisch/g09/l1.exe PID=     34176.
  
 Copyright (c) 1988,1990,1992,1993,1995,1998,2003,2009,2013,
            Gaussian, Inc.  All Rights Reserved.
  
 This is part of the Gaussian(R) 09 program.  It is based on
 the Gaussian(R) 03 system (copyright 2003, Gaussian, Inc.),
 the Gaussian(R) 98 system (copyright 1998, Gaussian, Inc.),
 the Gaussian(R) 94 system (copyright 1995, Gaussian, Inc.),
 the Gaussian 92(TM) system (copyright 1992, Gaussian, Inc.),
 the Gaussian 90(TM) system (copyright 1990, Gaussian, Inc.),
 the Gaussian 88(TM) system (copyright 1988, Gaussian, Inc.),
 the Gaussian 86(TM) system (copyright 1986, Carnegie Mellon
 University), and the Gaussian 82(TM) system (copyright 1983,
 Carnegie Mellon University). Gaussian is a federally registered
 trademark of Gaussian, Inc.
  
 This software contains proprietary and confidential information,
 including trade secrets, belonging to Gaussian, Inc.
  
 This software is provided under written license and may be
 used, copied, transmitted, or stored only in accord with that
 written license.
  
 The following legend is applicable only to US Government
 contracts under FAR:
  
                    RESTRICTED RIGHTS LEGEND
  
 Use, reproduction and disclosure by the US Government is
 subject to restrictions as set forth in subparagraphs (a)
 and (c) of the Commercial Computer Software - Restricted
 Rights clause in FAR 52.227-19.
  
 Gaussian, Inc.
 340 Quinnipiac St., Bldg. 40, Wallingford CT 06492
  
  
 ---------------------------------------------------------------
 Warning -- This program may not be used in any manner that
 competes with the business of Gaussian, Inc. or will provide
 assistance to any competitor of Gaussian, Inc.  The licensee
 of this program is prohibited from giving any competitor of
 Gaussian, Inc. access to this program.  By using this program,
 the user acknowledges that Gaussian, Inc. is engaged in the
 business of creating and licensing software in the field of
 computational chemistry and represents and warrants to the
 licensee that it is not a competitor of Gaussian, Inc. and that
 it will not use this program in any manner prohibited above.
 ---------------------------------------------------------------
  

 Cite this work as:
 Gaussian 09, Revision D.01,
 M. J. Frisch, G. W. Trucks, H. B. Schlegel, G. E. Scuseria, 
 M. A. Robb, J. R. Cheeseman, G. Scalmani, V. Barone, B. Mennucci, 
 G. A. Petersson, H. Nakatsuji, M. Caricato, X. Li, H. P. Hratchian, 
 A. F. Izmaylov, J. Bloino, G. Zheng, J. L. Sonnenberg, M. Hada, 
 M. Ehara, K. Toyota, R. Fukuda, J. Hasegawa, M. Ishida, T. Nakajima, 
 Y. Honda, O. Kitao, H. Nakai, T. Vreven, J. A. Montgomery, Jr., 
 J. E. Peralta, F. Ogliaro, M. Bearpark, J. J. Heyd, E. Brothers, 
 K. N. Kudin, V. N. Staroverov, T. Keith, R. Kobayashi, J. Normand, 
 K. Raghavachari, A. Rendell, J. C. Burant, S. S. Iyengar, J. Tomasi, 
 M. Cossi, N. Rega, J. M. Millam, M. Klene, J. E. Knox, J. B. Cross, 
 V. Bakken, C. Adamo, J. Jaramillo, R. Gomperts, R. E. Stratmann, 
 O. Yazyev, A. J. Austin, R. Cammi, C. Pomelli, J. W. Ochterski, 
 R. L. Martin, K. Morokuma, V. G. Zakrzewski, G. A. Voth, 
 P. Salvador, J. J. Dannenberg, S. Dapprich, A. D. Daniels, 
 O. Farkas, J. B. Foresman, J. V. Ortiz, J. Cioslowski, 
 and D. J. Fox, Gaussian, Inc., Wallingford CT, 2013.
 
 ******************************************
 Gaussian 09:  ES64L-G09RevD.01 24-Apr-2013
                24-Apr-2013 
 ******************************************
 SetSPE:  set environment variable "MP_BIND" = "yes"
 SetSPE:  set environment variable "MP_BLIST" = "0"
 ------------------------------------
 #p rhf/3-21g test geom=modela pop=mk
 ------------------------------------
 1/29=4,38=1/1;
 2/12=2,17=6,18=5,40=1/2;
 3/5=5,11=1,16=1,25=1,30=1,116=1/1,2,3;
 4//1;
 5/5=2,38=5/2;
 6/7=2,8=2,9=2,10=2,15=8,20=1,28=1/1,2;
 99/5=1,9=1/99;
 Leave Link    1 at Wed Apr 24 20:08:28 2013, MaxMem=           0 cpu:         0.0
 (Enter /mf/frisch/g09/l101.exe)
 ----------------------------------------------------------------------
 Gaussian Test Job 200 (Part 1): Methanol charges via electrostatic pot
 ential fit
 ----------------------------------------------------------------------
 Charge =  0 Multiplicity = 1
 Model A used to generate z-matrix:
 Short formula matrix:
   Atom   Symbol  Geom  Angle     Array F
    1        O    Bent         2   3   0   0
    2        H                 1   0   0   0
    3        C    Tetr         1   4   5   6
    4        H                 3   0   0   0
    5        H                 3   0   0   0
    6        H                 3   0   0   0
 Generated Z-Matrix:
 O
 H,1,R2
 C,1,R3,2,A3
 H,3,R4,1,A4,2,180.,0
 H,3,R5,1,A5,2,D5,0
 H,3,R5,1,A5,2,-D5,0
      Variables:
 R2=0.96
 R3=1.43
 R4=1.09
 R5=1.09
 A3=109.47122063
 A4=109.47122063
 A5=109.47122063
 D5=-60.
     4 tetrahedral angles replaced.
 NAtoms=      6 NQM=        6 NQMF=       0 NMMI=      0 NMMIF=      0
                NMic=       0 NMicF=      0.
    4 tetrahedral angles replaced.
                    Isotopes and Nuclear Properties:
 (Nuclear quadrupole moments (NQMom) in fm**2, nuclear magnetic moments (NMagM)
  in nuclear magnetons)

  Atom         1           2           3           4           5           6
 IAtWgt=          16           1          12           1           1           1
 AtmWgt=  15.9949146   1.0078250  12.0000000   1.0078250   1.0078250   1.0078250
 NucSpn=           0           1           0           1           1           1
 AtZEff=   0.0000000   0.0000000   0.0000000   0.0000000   0.0000000   0.0000000
 NQMom=    0.0000000   0.0000000   0.0000000   0.0000000   0.0000000   0.0000000
 NMagM=    0.0000000   2.7928460   0.0000000   2.7928460   2.7928460   2.7928460
 AtZNuc=   8.0000000   1.0000000   6.0000000   1.0000000   1.0000000   1.0000000
 Leave Link  101 at Wed Apr 24 20:08:29 2013, MaxMem=    33554432 cpu:         0.2
 (Enter /mf/frisch/g09/l202.exe)
                          Input orientation:                          
 ---------------------------------------------------------------------
 Center     Atomic      Atomic             Coordinates (Angstroms)
 Number     Number       Type             X           Y           Z
 ---------------------------------------------------------------------
      1          8           0        0.000000    0.000000    0.000000
      2          1           0        0.000000    0.000000    0.960000
      3          6           0        1.348217    0.000000   -0.476667
      4          1           0        1.348217    0.000000   -1.566667
      5          1           0        1.862048    0.889981   -0.113333
      6          1           0        1.862048   -0.889981   -0.113333
 ---------------------------------------------------------------------
                    Distance matrix (angstroms):
                    1          2          3          4          5
     1  O    0.000000
     2  H    0.960000   0.000000
     3  C    1.430000   1.970203   0.000000
     4  H    2.066914   2.863867   1.090000   0.000000
     5  H    2.066914   2.326227   1.090000   1.779963   0.000000
     6  H    2.066914   2.326227   1.090000   1.779963   1.779963
                    6
     6  H    0.000000
 Stoichiometry    CH4O
 Framework group  CS[SG(CH2O),X(H2)]
 Deg. of freedom     8
 Full point group                 CS      NOp   2
 Largest Abelian subgroup         CS      NOp   2
 Largest concise Abelian subgroup CS      NOp   2
                         Standard orientation:                         
 ---------------------------------------------------------------------
 Center     Atomic      Atomic             Coordinates (Angstroms)
 Number     Number       Type             X           Y           Z
 ---------------------------------------------------------------------
      1          8           0       -0.050283   -0.757778    0.000000
      2          1           0        0.854814   -1.077778    0.000000
      3          6           0       -0.050283    0.672222    0.000000
      4          1           0       -1.077945    1.035556    0.000000
      5          1           0        0.463548    1.035556    0.889981
      6          1           0        0.463548    1.035556   -0.889981
 ---------------------------------------------------------------------
 Rotational constants (GHZ):    128.2399015     24.6015268     23.7373947
 Leave Link  202 at Wed Apr 24 20:08:29 2013, MaxMem=    33554432 cpu:         0.0
 (Enter /mf/frisch/g09/l301.exe)
 Standard basis: 3-21G (6D, 7F)
 Ernie: Thresh=  0.10000D-02 Tol=  0.10000D-05 Strict=F.
 There are    20 symmetry adapted cartesian basis functions of A'  symmetry.
 There are     6 symmetry adapted cartesian basis functions of A"  symmetry.
 There are    20 symmetry adapted basis functions of A'  symmetry.
 There are     6 symmetry adapted basis functions of A"  symmetry.
    26 basis functions,    42 primitive gaussians,    26 cartesian basis functions
     9 alpha electrons        9 beta electrons
       nuclear repulsion energy        40.1988311633 Hartrees.
 IExCor=    0 DFT=F Ex=HF Corr=None ExCW=0 ScaHFX=  1.000000
 ScaDFX=  1.000000  1.000000  1.000000  1.000000 ScalE2=  1.000000  1.000000
 IRadAn=      0 IRanWt=     -1 IRanGd=            0 ICorTp=0 IEmpDi=  4
 NAtoms=    6 NActive=    6 NUniq=    5 SFac= 1.44D+00 NAtFMM=   60 NAOKFM=F Big=F
 Integral buffers will be    131072 words long.
 Raffenetti 1 integral format.
 Two-electron integral symmetry is turned on.
 Leave Link  301 at Wed Apr 24 20:08:29 2013, MaxMem=    33554432 cpu:         0.1
 (Enter /mf/frisch/g09/l302.exe)
 NPDir=0 NMtPBC=     1 NCelOv=     1 NCel=       1 NClECP=     1 NCelD=      1
         NCelK=      1 NCelE2=     1 NClLst=     1 CellRange=     0.0.
 One-electron integrals computed using PRISM.
 One-electron integral symmetry used in STVInt
 NBasis=    26 RedAO= T EigKep=  3.91D-02  NBF=    20     6
 NBsUse=    26 1.00D-06 EigRej= -1.00D+00 NBFU=    20     6
 Leave Link  302 at Wed Apr 24 20:08:29 2013, MaxMem=    33554432 cpu:         0.1
 (Enter /mf/frisch/g09/l303.exe)
 DipDrv:  MaxL=1.
 Leave Link  303 at Wed Apr 24 20:08:29 2013, MaxMem=    33554432 cpu:         0.0
 (Enter /mf/frisch/g09/l401.exe)
 ExpMin= 1.83D-01 ExpMax= 3.22D+02 ExpMxC= 3.22D+02 IAcc=1 IRadAn=         1 AccDes= 0.00D+00
 Harris functional with IExCor=  205 and IRadAn=       1 diagonalized for initial guess.
 HarFok:  IExCor=  205 AccDes= 0.00D+00 IRadAn=         1 IDoV= 1 UseB2=F ITyADJ=14
 ICtDFT=  3500011 ScaDFX=  1.000000  1.000000  1.000000  1.000000
 FoFCou: FMM=F IPFlag=           0 FMFlag=      100000 FMFlg1=           0
         NFxFlg=           0 DoJE=T BraDBF=F KetDBF=T FulRan=T
         wScrn=  0.000000 ICntrl=     500 IOpCl=  0 I1Cent=   200000004 NGrid=           0
         NMat0=    1 NMatS0=      1 NMatT0=    0 NMatD0=    1 NMtDS0=    0 NMtDT0=    0
 Petite list used in FoFCou.
 Harris En= -114.568817072228    
 JPrj=0 DoOrth=F DoCkMO=F.
 Initial guess orbital symmetries:
       Occupied  (A') (A') (A') (A') (A') (A") (A') (A') (A")
       Virtual   (A') (A') (A') (A") (A') (A') (A") (A') (A') (A')
                 (A") (A') (A") (A') (A') (A') (A')
 The electronic state of the initial guess is 1-A'.
 Leave Link  401 at Wed Apr 24 20:08:29 2013, MaxMem=    33554432 cpu:         0.2
 (Enter /mf/frisch/g09/l502.exe)
 Closed shell SCF:
 Using DIIS extrapolation, IDIIS=  1040.
 Integral symmetry usage will be decided dynamically.
 Keep R1 ints in memory in symmetry-blocked form, NReq=890336.
 IVT=       20986 IEndB=       20986 NGot=    33554432 MDV=    33498375
 LenX=    33498375 LenY=    33497258
 Requested convergence on RMS density matrix=1.00D-08 within 128 cycles.
 Requested convergence on MAX density matrix=1.00D-06.
 Requested convergence on             energy=1.00D-06.
 No special actions if energy rises.
 FoFCou: FMM=F IPFlag=           0 FMFlag=           0 FMFlg1=           0
         NFxFlg=           0 DoJE=F BraDBF=F KetDBF=F FulRan=T
         wScrn=  0.000000 ICntrl=     600 IOpCl=  0 I1Cent=           0 NGrid=           0
         NMat0=    1 NMatS0=    351 NMatT0=    0 NMatD0=    1 NMtDS0=    0 NMtDT0=    0
 Petite list used in FoFCou.

 Cycle   1  Pass 1  IDiag  1:
 E= -114.309036380068    
 DIIS: error= 5.76D-02 at cycle   1 NSaved=   1.
 NSaved= 1 IEnMin= 1 EnMin= -114.309036380068     IErMin= 1 ErrMin= 5.76D-02
 ErrMax= 5.76D-02  0.00D+00 EMaxC= 1.00D-01 BMatC= 1.32D-01 BMatP= 1.32D-01
 IDIUse=3 WtCom= 4.24D-01 WtEn= 5.76D-01
 Coeff-Com:  0.100D+01
 Coeff-En:   0.100D+01
 Coeff:      0.100D+01
 Gap=     0.681 Goal=   None    Shift=    0.000
 GapD=    0.681 DampG=2.000 DampE=0.500 DampFc=1.0000 IDamp=-1.
 RMSDP=1.18D-02 MaxDP=6.74D-02              OVMax= 8.45D-02

 Cycle   2  Pass 1  IDiag  1:
 E= -114.383966129652     Delta-E=       -0.074929749584 Rises=F Damp=F
 DIIS: error= 2.84D-02 at cycle   2 NSaved=   2.
 NSaved= 2 IEnMin= 2 EnMin= -114.383966129652     IErMin= 2 ErrMin= 2.84D-02
 ErrMax= 2.84D-02  0.00D+00 EMaxC= 1.00D-01 BMatC= 1.97D-02 BMatP= 1.32D-01
 IDIUse=3 WtCom= 7.16D-01 WtEn= 2.84D-01
 Coeff-Com:  0.237D+00 0.763D+00
 Coeff-En:   0.000D+00 0.100D+01
 Coeff:      0.170D+00 0.830D+00
 Gap=     0.713 Goal=   None    Shift=    0.000
 RMSDP=4.01D-03 MaxDP=2.49D-02 DE=-7.49D-02 OVMax= 2.22D-02

 Cycle   3  Pass 1  IDiag  1:
 E= -114.396116257297     Delta-E=       -0.012150127645 Rises=F Damp=F
 DIIS: error= 6.24D-03 at cycle   3 NSaved=   3.
 NSaved= 3 IEnMin= 3 EnMin= -114.396116257297     IErMin= 3 ErrMin= 6.24D-03
 ErrMax= 6.24D-03  0.00D+00 EMaxC= 1.00D-01 BMatC= 8.87D-04 BMatP= 1.97D-02
 IDIUse=3 WtCom= 9.38D-01 WtEn= 6.24D-02
 Coeff-Com: -0.151D-01 0.141D+00 0.875D+00
 Coeff-En:   0.000D+00 0.000D+00 0.100D+01
 Coeff:     -0.142D-01 0.132D+00 0.882D+00
 Gap=     0.693 Goal=   None    Shift=    0.000
 RMSDP=7.68D-04 MaxDP=5.74D-03 DE=-1.22D-02 OVMax= 6.26D-03

 Cycle   4  Pass 1  IDiag  1:
 E= -114.396717982642     Delta-E=       -0.000601725344 Rises=F Damp=F
 DIIS: error= 1.29D-03 at cycle   4 NSaved=   4.
 NSaved= 4 IEnMin= 4 EnMin= -114.396717982642     IErMin= 4 ErrMin= 1.29D-03
 ErrMax= 1.29D-03  0.00D+00 EMaxC= 1.00D-01 BMatC= 3.72D-05 BMatP= 8.87D-04
 IDIUse=3 WtCom= 9.87D-01 WtEn= 1.29D-02
 Coeff-Com: -0.767D-02 0.111D-01 0.221D+00 0.775D+00
 Coeff-En:   0.000D+00 0.000D+00 0.000D+00 0.100D+01
 Coeff:     -0.757D-02 0.110D-01 0.218D+00 0.778D+00
 Gap=     0.695 Goal=   None    Shift=    0.000
 RMSDP=1.72D-04 MaxDP=1.04D-03 DE=-6.02D-04 OVMax= 1.28D-03

 Cycle   5  Pass 1  IDiag  1:
 E= -114.396746931188     Delta-E=       -0.000028948547 Rises=F Damp=F
 DIIS: error= 2.35D-04 at cycle   5 NSaved=   5.
 NSaved= 5 IEnMin= 5 EnMin= -114.396746931188     IErMin= 5 ErrMin= 2.35D-04
 ErrMax= 2.35D-04  0.00D+00 EMaxC= 1.00D-01 BMatC= 1.20D-06 BMatP= 3.72D-05
 IDIUse=3 WtCom= 9.98D-01 WtEn= 2.35D-03
 Coeff-Com:  0.255D-02-0.144D-01-0.103D+00-0.135D+00 0.125D+01
 Coeff-En:   0.000D+00 0.000D+00 0.000D+00 0.000D+00 0.100D+01
 Coeff:      0.254D-02-0.144D-01-0.103D+00-0.135D+00 0.125D+01
 Gap=     0.695 Goal=   None    Shift=    0.000
 RMSDP=7.30D-05 MaxDP=3.57D-04 DE=-2.89D-05 OVMax= 5.04D-04

 Cycle   6  Pass 1  IDiag  1:
 E= -114.396748964007     Delta-E=       -0.000002032819 Rises=F Damp=F
 DIIS: error= 4.17D-05 at cycle   6 NSaved=   6.
 NSaved= 6 IEnMin= 6 EnMin= -114.396748964007     IErMin= 6 ErrMin= 4.17D-05
 ErrMax= 4.17D-05  0.00D+00 EMaxC= 1.00D-01 BMatC= 1.36D-08 BMatP= 1.20D-06
 IDIUse=1 WtCom= 1.00D+00 WtEn= 0.00D+00
 Coeff-Com: -0.633D-03 0.408D-02 0.283D-01 0.226D-01-0.368D+00 0.131D+01
 Coeff:     -0.633D-03 0.408D-02 0.283D-01 0.226D-01-0.368D+00 0.131D+01
 Gap=     0.695 Goal=   None    Shift=    0.000
 RMSDP=1.06D-05 MaxDP=5.86D-05 DE=-2.03D-06 OVMax= 6.26D-05

 Cycle   7  Pass 1  IDiag  1:
 E= -114.396748991047     Delta-E=       -0.000000027040 Rises=F Damp=F
 DIIS: error= 3.17D-06 at cycle   7 NSaved=   7.
 NSaved= 7 IEnMin= 7 EnMin= -114.396748991047     IErMin= 7 ErrMin= 3.17D-06
 ErrMax= 3.17D-06  0.00D+00 EMaxC= 1.00D-01 BMatC= 2.03D-10 BMatP= 1.36D-08
 IDIUse=1 WtCom= 1.00D+00 WtEn= 0.00D+00
 Coeff-Com:  0.135D-03-0.894D-03-0.631D-02-0.439D-02 0.845D-01-0.375D+00
 Coeff-Com:  0.130D+01
 Coeff:      0.135D-03-0.894D-03-0.631D-02-0.439D-02 0.845D-01-0.375D+00
 Coeff:      0.130D+01
 Gap=     0.695 Goal=   None    Shift=    0.000
 RMSDP=1.57D-06 MaxDP=8.59D-06 DE=-2.70D-08 OVMax= 1.21D-05

 Cycle   8  Pass 1  IDiag  1:
 E= -114.396748991572     Delta-E=       -0.000000000525 Rises=F Damp=F
 DIIS: error= 4.88D-07 at cycle   8 NSaved=   8.
 NSaved= 8 IEnMin= 8 EnMin= -114.396748991572     IErMin= 8 ErrMin= 4.88D-07
 ErrMax= 4.88D-07  0.00D+00 EMaxC= 1.00D-01 BMatC= 7.61D-12 BMatP= 2.03D-10
 IDIUse=1 WtCom= 1.00D+00 WtEn= 0.00D+00
 Coeff-Com: -0.201D-04 0.135D-03 0.964D-03 0.293D-03-0.126D-01 0.683D-01
 Coeff-Com: -0.356D+00 0.130D+01
 Coeff:     -0.201D-04 0.135D-03 0.964D-03 0.293D-03-0.126D-01 0.683D-01
 Coeff:     -0.356D+00 0.130D+01
 Gap=     0.695 Goal=   None    Shift=    0.000
 RMSDP=2.57D-07 MaxDP=1.07D-06 DE=-5.25D-10 OVMax= 2.52D-06

 Cycle   9  Pass 1  IDiag  1:
 E= -114.396748991590     Delta-E=       -0.000000000017 Rises=F Damp=F
 DIIS: error= 1.25D-07 at cycle   9 NSaved=   9.
 NSaved= 9 IEnMin= 9 EnMin= -114.396748991590     IErMin= 9 ErrMin= 1.25D-07
 ErrMax= 1.25D-07  0.00D+00 EMaxC= 1.00D-01 BMatC= 2.65D-13 BMatP= 7.61D-12
 IDIUse=1 WtCom= 1.00D+00 WtEn= 0.00D+00
 Coeff-Com:  0.531D-05-0.365D-04-0.260D-03-0.973D-05 0.331D-02-0.199D-01
 Coeff-Com:  0.122D+00-0.596D+00 0.149D+01
 Coeff:      0.531D-05-0.365D-04-0.260D-03-0.973D-05 0.331D-02-0.199D-01
 Coeff:      0.122D+00-0.596D+00 0.149D+01
 Gap=     0.695 Goal=   None    Shift=    0.000
 RMSDP=6.25D-08 MaxDP=5.39D-07 DE=-1.73D-11 OVMax= 7.11D-07

 Cycle  10  Pass 1  IDiag  1:
 E= -114.396748991590     Delta-E=       -0.000000000001 Rises=F Damp=F
 DIIS: error= 1.52D-08 at cycle  10 NSaved=  10.
 NSaved=10 IEnMin=10 EnMin= -114.396748991590     IErMin=10 ErrMin= 1.52D-08
 ErrMax= 1.52D-08  0.00D+00 EMaxC= 1.00D-01 BMatC= 7.13D-15 BMatP= 2.65D-13
 IDIUse=1 WtCom= 1.00D+00 WtEn= 0.00D+00
 Coeff-Com: -0.101D-05 0.694D-05 0.508D-04-0.115D-04-0.643D-03 0.431D-02
 Coeff-Com: -0.288D-01 0.155D+00-0.495D+00 0.136D+01
 Coeff:     -0.101D-05 0.694D-05 0.508D-04-0.115D-04-0.643D-03 0.431D-02
 Coeff:     -0.288D-01 0.155D+00-0.495D+00 0.136D+01
 Gap=     0.695 Goal=   None    Shift=    0.000
 RMSDP=8.39D-09 MaxDP=6.53D-08 DE=-8.81D-13 OVMax= 8.64D-08

 SCF Done:  E(RHF) =  -114.396748992     A.U. after   10 cycles
            NFock= 10  Conv=0.84D-08     -V/T= 2.0026
 KE= 1.140997501530D+02 PE=-3.499157053050D+02 EE= 8.122037499706D+01
 Leave Link  502 at Wed Apr 24 20:08:29 2013, MaxMem=    33554432 cpu:         0.1
 (Enter /mf/frisch/g09/l601.exe)
 Copying SCF densities to generalized density rwf, IOpCl= 0 IROHF=0.

 **********************************************************************

            Population analysis using the SCF density.

 **********************************************************************

 Orbital symmetries:
       Occupied  (A') (A') (A') (A') (A') (A") (A') (A') (A")
       Virtual   (A') (A') (A') (A") (A') (A') (A") (A') (A') (A')
                 (A") (A') (A') (A") (A') (A') (A')
 The electronic state is 1-A'.
 Alpha  occ. eigenvalues --  -20.43245 -11.21389  -1.33982  -0.92345  -0.66884
 Alpha  occ. eigenvalues --   -0.61671  -0.58285  -0.47795  -0.43163
 Alpha virt. eigenvalues --    0.26338   0.31625   0.34844   0.35134   0.42610
 Alpha virt. eigenvalues --    0.95292   0.96460   0.96971   1.24569   1.29781
 Alpha virt. eigenvalues --    1.31567   1.36267   1.87928   1.88085   1.98004
 Alpha virt. eigenvalues --    2.14734   3.34419
          Condensed to atoms (all electrons):
               1          2          3          4          5          6
     1  O    8.286163   0.269799   0.225875  -0.025768  -0.036490  -0.036490
     2  H    0.269799   0.407528  -0.050058   0.004422  -0.003083  -0.003083
     3  C    0.225875  -0.050058   5.001248   0.371574   0.355156   0.355156
     4  H   -0.025768   0.004422   0.371574   0.499730  -0.032717  -0.032717
     5  H   -0.036490  -0.003083   0.355156  -0.032717   0.582797  -0.041707
     6  H   -0.036490  -0.003083   0.355156  -0.032717  -0.041707   0.582797
 Mulliken charges:
               1
     1  O   -0.683087
     2  H    0.374476
     3  C   -0.258951
     4  H    0.215476
     5  H    0.176043
     6  H    0.176043
 Sum of Mulliken charges =   0.00000
 Mulliken charges with hydrogens summed into heavy atoms:
               1
     1  O   -0.308611
     3  C    0.308611
 Electronic spatial extent (au):  <R**2>=             84.1384
 Charge=              0.0000 electrons
 Dipole moment (field-independent basis, Debye):
    X=              1.6873    Y=              1.3163    Z=              0.0000  Tot=              2.1400
 Quadrupole moment (field-independent basis, Debye-Ang):
   XX=            -11.5600   YY=            -13.0635   ZZ=            -13.4915
   XY=             -2.4496   XZ=              0.0000   YZ=              0.0000
 Traceless Quadrupole moment (field-independent basis, Debye-Ang):
   XX=              1.1450   YY=             -0.3585   ZZ=             -0.7865
   XY=             -2.4496   XZ=              0.0000   YZ=              0.0000
 Octapole moment (field-independent basis, Debye-Ang**2):
  XXX=              1.0868  YYY=             -3.8959  ZZZ=              0.0000  XYY=              2.2664
  XXY=             -2.1978  XXZ=              0.0000  XZZ=              0.6691  YZZ=             -0.7702
  YYZ=              0.0000  XYZ=              0.0000
 Hexadecapole moment (field-independent basis, Debye-Ang**3):
 XXXX=            -17.5557 YYYY=            -59.6964 ZZZZ=            -17.8826 XXXY=             -1.0941
 XXXZ=              0.0000 YYYX=             -1.5256 YYYZ=              0.0000 ZZZX=              0.0000
 ZZZY=              0.0000 XXYY=            -11.3577 XXZZ=             -6.2306 YYZZ=            -13.1779
 XXYZ=              0.0000 YYXZ=              0.0000 ZZXY=              0.8534
 N-N= 4.019883116335D+01 E-N=-3.499157053808D+02  KE= 1.140997501530D+02
 Symmetry A'   KE= 1.074732867576D+02
 Symmetry A"   KE= 6.626463395432D+00
 No NMR shielding tensors so no spin-rotation constants.
 Leave Link  601 at Wed Apr 24 20:08:30 2013, MaxMem=    33554432 cpu:         0.1
 (Enter /mf/frisch/g09/l602.exe)
 FitSet:  NAtFit=     6 NAtPot=     6 NAtFrz=     0 MDM=    10 TotChg=   0.00000
 Merz-Kollman atomic radii used.

 **********************************************************************

            Electrostatic Properties Using The SCF Density

 **********************************************************************

       Atomic Center    1 is at  -0.050283 -0.757778  0.000000
       Atomic Center    2 is at   0.854814 -1.077778  0.000000
       Atomic Center    3 is at  -0.050283  0.672222  0.000000
       Atomic Center    4 is at  -1.077945  1.035556  0.000000
       Atomic Center    5 is at   0.463548  1.035556  0.889981
       Atomic Center    6 is at   0.463548  1.035556 -0.889981
     426 points will be used for fitting atomic charges
 Fitting point charges to electrostatic potential
 Charges from ESP fit, RMS=   0.00208 RRMS=   0.11245:
 ESP charges:
               1
     1  O   -0.726090
     2  H    0.448428
     3  C    0.227880
     4  H    0.052372
     5  H   -0.001295
     6  H   -0.001295
 Sum of ESP charges =   0.00000
 ESP charges with hydrogens summed into heavy atoms:
               1
     1  O   -0.277662
     3  C    0.277662
 Charge=   0.00000 Dipole=     1.6846     1.3048     0.0000 Tot=     2.1308
 -----------------------------------------------------------------

              Electrostatic Properties (Atomic Units)

 -----------------------------------------------------------------
    Center     Electric         -------- Electric Field --------
               Potential          X             Y             Z
 -----------------------------------------------------------------
    1 Atom    -22.212822
    2 Atom     -0.992056
    3 Atom    -14.586733
    4 Atom     -1.096839
    5 Atom     -1.103084
    6 Atom     -1.103084
 -----------------------------------------------------------------
 Leave Link  602 at Wed Apr 24 20:08:30 2013, MaxMem=    33554432 cpu:         0.0
 (Enter /mf/frisch/g09/l9999.exe)

 Test job not archived.
 1\1\GINC-ALTUV\SP\RHF\3-21G\C1H4O1\FRISCH\24-Apr-2013\0\\#p rhf/3-21g 
 test geom=modela pop=mk\\Gaussian Test Job 200 (Part 1): Methanol char
 ges via electrostatic potential fit\\0,1\O\H,1,0.96\C,1,1.43,2,109.471
 22063\H,3,1.09,1,109.47122063,2,180.,0\H,3,1.09,1,109.47122063,2,-60.,
 0\H,3,1.09,1,109.47122063,2,60.,0\\Version=ES64L-G09RevD.01\State=1-A'
 \HF=-114.396749\RMSD=8.389e-09\Dipole=0.7095186,0.,0.453236\Quadrupole
 =-1.2870475,-0.584731,1.8717785,0.,-1.0652141,0.\PG=CS [SG(C1H2O1),X(H
 2)]\\@


 THERE IS MUCH PLEASURE TO BE GAINED FROM USELESS KNOWLEDGE

                                       -- BERTRAND RUSSELL
 Job cpu time:       0 days  0 hours  0 minutes  1.2 seconds.
 File lengths (MBytes):  RWF=      5 Int=      0 D2E=      0 Chk=      1 Scr=      1
 Normal termination of Gaussian 09 at Wed Apr 24 20:08:30 2013.
 Initial command:
 /mf/frisch/g09/l1.exe "/altuv/s0/scratch/Gau-34175.inp" -scrdir="/altuv/s0/scratch/"
 Default CPUs for threads: 0
 Entering Link 1 = /mf/frisch/g09/l1.exe PID=     34177.
  
 Copyright (c) 1988,1990,1992,1993,1995,1998,2003,2009,2013,
            Gaussian, Inc.  All Rights Reserved.
  
 This is part of the Gaussian(R) 09 program.  It is based on
 the Gaussian(R) 03 system (copyright 2003, Gaussian, Inc.),
 the Gaussian(R) 98 system (copyright 1998, Gaussian, Inc.),
 the Gaussian(R) 94 system (copyright 1995, Gaussian, Inc.),
 the Gaussian 92(TM) system (copyright 1992, Gaussian, Inc.),
 the Gaussian 90(TM) system (copyright 1990, Gaussian, Inc.),
 the Gaussian 88(TM) system (copyright 1988, Gaussian, Inc.),
 the Gaussian 86(TM) system (copyright 1986, Carnegie Mellon
 University), and the Gaussian 82(TM) system (copyright 1983,
 Carnegie Mellon University). Gaussian is a federally registered
 trademark of Gaussian, Inc.
  
 This software contains proprietary and confidential information,
 including trade secrets, belonging to Gaussian, Inc.
  
 This software is provided under written license and may be
 used, copied, transmitted, or stored only in accord with that
 written license.
  
 The following legend is applicable only to US Government
 contracts under FAR:
  
                    RESTRICTED RIGHTS LEGEND
  
 Use, reproduction and disclosure by the US Government is
 subject to restrictions as set forth in subparagraphs (a)
 and (c) of the Commercial Computer Software - Restricted
 Rights clause in FAR 52.227-19.
  
 Gaussian, Inc.
 340 Quinnipiac St., Bldg. 40, Wallingford CT 06492
  
  
 ---------------------------------------------------------------
 Warning -- This program may not be used in any manner that
 competes with the business of Gaussian, Inc. or will provide
 assistance to any competitor of Gaussian, Inc.  The licensee
 of this program is prohibited from giving any competitor of
 Gaussian, Inc. access to this program.  By using this program,
 the user acknowledges that Gaussian, Inc. is engaged in the
 business of creating and licensing software in the field of
 computational chemistry and represents and warrants to the
 licensee that it is not a competitor of Gaussian, Inc. and that
 it will not use this program in any manner prohibited above.
 ---------------------------------------------------------------
  

 Cite this work as:
 Gaussian 09, Revision D.01,
 M. J. Frisch, G. W. Trucks, H. B. Schlegel, G. E. Scuseria, 
 M. A. Robb, J. R. Cheeseman, G. Scalmani, V. Barone, B. Mennucci, 
 G. A. Petersson, H. Nakatsuji, M. Caricato, X. Li, H. P. Hratchian, 
 A. F. Izmaylov, J. Bloino, G. Zheng, J. L. Sonnenberg, M. Hada, 
 M. Ehara, K. Toyota, R. Fukuda, J. Hasegawa, M. Ishida, T. Nakajima, 
 Y. Honda, O. Kitao, H. Nakai, T. Vreven, J. A. Montgomery, Jr., 
 J. E. Peralta, F. Ogliaro, M. Bearpark, J. J. Heyd, E. Brothers, 
 K. N. Kudin, V. N. Staroverov, T. Keith, R. Kobayashi, J. Normand, 
 K. Raghavachari, A. Rendell, J. C. Burant, S. S. Iyengar, J. Tomasi, 
 M. Cossi, N. Rega, J. M. Millam, M. Klene, J. E. Knox, J. B. Cross, 
 V. Bakken, C. Adamo, J. Jaramillo, R. Gomperts, R. E. Stratmann, 
 O. Yazyev, A. J. Austin, R. Cammi, C. Pomelli, J. W. Ochterski, 
 R. L. Martin, K. Morokuma, V. G. Zakrzewski, G. A. Voth, 
 P. Salvador, J. J. Dannenberg, S. Dapprich, A. D. Daniels, 
 O. Farkas, J. B. Foresman, J. V. Ortiz, J. Cioslowski, 
 and D. J. Fox, Gaussian, Inc., Wallingford CT, 2013.
 
 ******************************************
 Gaussian 09:  ES64L-G09RevD.01 24-Apr-2013
                24-Apr-2013 
 ******************************************
 SetSPE:  set environment variable "MP_BIND" = "yes"
 SetSPE:  set environment variable "MP_BLIST" = "0"
 ---------------------------------------------
 #p rhf/3-21g pop=(mk,dipole) test geom=modela
 ---------------------------------------------
 1/29=4,38=1/1;
 2/12=2,17=6,18=5,40=1/2;
 3/5=5,11=1,16=1,25=1,30=1,116=1/1,2,3;
 4//1;
 5/5=2,38=5/2;
 6/7=2,8=2,9=2,10=2,15=24,20=1,28=1/1,2;
 99/5=1,9=1/99;
 Leave Link    1 at Wed Apr 24 20:08:30 2013, MaxMem=           0 cpu:         0.1
 (Enter /mf/frisch/g09/l101.exe)
 ----------------------------------------------------------------------
 Gaussian Test Job 200 (Part 2): Methanol charges via electrostatic pot
 ential fit with dipole constraint
 ----------------------------------------------------------------------
 Charge =  0 Multiplicity = 1
 Model A used to generate z-matrix:
 Short formula matrix:
   Atom   Symbol  Geom  Angle     Array F
    1        O    Bent         2   3   0   0
    2        H                 1   0   0   0
    3        C    Tetr         1   4   5   6
    4        H                 3   0   0   0
    5        H                 3   0   0   0
    6        H                 3   0   0   0
 Generated Z-Matrix:
 O
 H,1,R2
 C,1,R3,2,A3
 H,3,R4,1,A4,2,180.,0
 H,3,R5,1,A5,2,D5,0
 H,3,R5,1,A5,2,-D5,0
      Variables:
 R2=0.96
 R3=1.43
 R4=1.09
 R5=1.09
 A3=109.47122063
 A4=109.47122063
 A5=109.47122063
 D5=-60.
     4 tetrahedral angles replaced.
 NAtoms=      6 NQM=        6 NQMF=       0 NMMI=      0 NMMIF=      0
                NMic=       0 NMicF=      0.
    4 tetrahedral angles replaced.
                    Isotopes and Nuclear Properties:
 (Nuclear quadrupole moments (NQMom) in fm**2, nuclear magnetic moments (NMagM)
  in nuclear magnetons)

  Atom         1           2           3           4           5           6
 IAtWgt=          16           1          12           1           1           1
 AtmWgt=  15.9949146   1.0078250  12.0000000   1.0078250   1.0078250   1.0078250
 NucSpn=           0           1           0           1           1           1
 AtZEff=   0.0000000   0.0000000   0.0000000   0.0000000   0.0000000   0.0000000
 NQMom=    0.0000000   0.0000000   0.0000000   0.0000000   0.0000000   0.0000000
 NMagM=    0.0000000   2.7928460   0.0000000   2.7928460   2.7928460   2.7928460
 AtZNuc=   8.0000000   1.0000000   6.0000000   1.0000000   1.0000000   1.0000000
 Leave Link  101 at Wed Apr 24 20:08:30 2013, MaxMem=    33554432 cpu:         0.2
 (Enter /mf/frisch/g09/l202.exe)
                          Input orientation:                          
 ---------------------------------------------------------------------
 Center     Atomic      Atomic             Coordinates (Angstroms)
 Number     Number       Type             X           Y           Z
 ---------------------------------------------------------------------
      1          8           0        0.000000    0.000000    0.000000
      2          1           0        0.000000    0.000000    0.960000
      3          6           0        1.348217    0.000000   -0.476667
      4          1           0        1.348217    0.000000   -1.566667
      5          1           0        1.862048    0.889981   -0.113333
      6          1           0        1.862048   -0.889981   -0.113333
 ---------------------------------------------------------------------
                    Distance matrix (angstroms):
                    1          2          3          4          5
     1  O    0.000000
     2  H    0.960000   0.000000
     3  C    1.430000   1.970203   0.000000
     4  H    2.066914   2.863867   1.090000   0.000000
     5  H    2.066914   2.326227   1.090000   1.779963   0.000000
     6  H    2.066914   2.326227   1.090000   1.779963   1.779963
                    6
     6  H    0.000000
 Stoichiometry    CH4O
 Framework group  CS[SG(CH2O),X(H2)]
 Deg. of freedom     8
 Full point group                 CS      NOp   2
 Largest Abelian subgroup         CS      NOp   2
 Largest concise Abelian subgroup CS      NOp   2
                         Standard orientation:                         
 ---------------------------------------------------------------------
 Center     Atomic      Atomic             Coordinates (Angstroms)
 Number     Number       Type             X           Y           Z
 ---------------------------------------------------------------------
      1          8           0       -0.050283   -0.757778    0.000000
      2          1           0        0.854814   -1.077778    0.000000
      3          6           0       -0.050283    0.672222    0.000000
      4          1           0       -1.077945    1.035556    0.000000
      5          1           0        0.463548    1.035556    0.889981
      6          1           0        0.463548    1.035556   -0.889981
 ---------------------------------------------------------------------
 Rotational constants (GHZ):    128.2399015     24.6015268     23.7373947
 Leave Link  202 at Wed Apr 24 20:08:30 2013, MaxMem=    33554432 cpu:         0.0
 (Enter /mf/frisch/g09/l301.exe)
 Standard basis: 3-21G (6D, 7F)
 Ernie: Thresh=  0.10000D-02 Tol=  0.10000D-05 Strict=F.
 There are    20 symmetry adapted cartesian basis functions of A'  symmetry.
 There are     6 symmetry adapted cartesian basis functions of A"  symmetry.
 There are    20 symmetry adapted basis functions of A'  symmetry.
 There are     6 symmetry adapted basis functions of A"  symmetry.
    26 basis functions,    42 primitive gaussians,    26 cartesian basis functions
     9 alpha electrons        9 beta electrons
       nuclear repulsion energy        40.1988311633 Hartrees.
 IExCor=    0 DFT=F Ex=HF Corr=None ExCW=0 ScaHFX=  1.000000
 ScaDFX=  1.000000  1.000000  1.000000  1.000000 ScalE2=  1.000000  1.000000
 IRadAn=      0 IRanWt=     -1 IRanGd=            0 ICorTp=0 IEmpDi=  4
 NAtoms=    6 NActive=    6 NUniq=    5 SFac= 1.44D+00 NAtFMM=   60 NAOKFM=F Big=F
 Integral buffers will be    131072 words long.
 Raffenetti 1 integral format.
 Two-electron integral symmetry is turned on.
 Leave Link  301 at Wed Apr 24 20:08:30 2013, MaxMem=    33554432 cpu:         0.1
 (Enter /mf/frisch/g09/l302.exe)
 NPDir=0 NMtPBC=     1 NCelOv=     1 NCel=       1 NClECP=     1 NCelD=      1
         NCelK=      1 NCelE2=     1 NClLst=     1 CellRange=     0.0.
 One-electron integrals computed using PRISM.
 One-electron integral symmetry used in STVInt
 NBasis=    26 RedAO= T EigKep=  3.91D-02  NBF=    20     6
 NBsUse=    26 1.00D-06 EigRej= -1.00D+00 NBFU=    20     6
 Leave Link  302 at Wed Apr 24 20:08:30 2013, MaxMem=    33554432 cpu:         0.1
 (Enter /mf/frisch/g09/l303.exe)
 DipDrv:  MaxL=1.
 Leave Link  303 at Wed Apr 24 20:08:30 2013, MaxMem=    33554432 cpu:         0.0
 (Enter /mf/frisch/g09/l401.exe)
 ExpMin= 1.83D-01 ExpMax= 3.22D+02 ExpMxC= 3.22D+02 IAcc=1 IRadAn=         1 AccDes= 0.00D+00
 Harris functional with IExCor=  205 and IRadAn=       1 diagonalized for initial guess.
 HarFok:  IExCor=  205 AccDes= 0.00D+00 IRadAn=         1 IDoV= 1 UseB2=F ITyADJ=14
 ICtDFT=  3500011 ScaDFX=  1.000000  1.000000  1.000000  1.000000
 FoFCou: FMM=F IPFlag=           0 FMFlag=      100000 FMFlg1=           0
         NFxFlg=           0 DoJE=T BraDBF=F KetDBF=T FulRan=T
         wScrn=  0.000000 ICntrl=     500 IOpCl=  0 I1Cent=   200000004 NGrid=           0
         NMat0=    1 NMatS0=      1 NMatT0=    0 NMatD0=    1 NMtDS0=    0 NMtDT0=    0
 Petite list used in FoFCou.
 Harris En= -114.568817072228    
 JPrj=0 DoOrth=F DoCkMO=F.
 Initial guess orbital symmetries:
       Occupied  (A') (A') (A') (A') (A') (A") (A') (A') (A")
       Virtual   (A') (A') (A') (A") (A') (A') (A") (A') (A') (A')
                 (A") (A') (A") (A') (A') (A') (A')
 The electronic state of the initial guess is 1-A'.
 Leave Link  401 at Wed Apr 24 20:08:31 2013, MaxMem=    33554432 cpu:         0.2
 (Enter /mf/frisch/g09/l502.exe)
 Closed shell SCF:
 Using DIIS extrapolation, IDIIS=  1040.
 Integral symmetry usage will be decided dynamically.
 Keep R1 ints in memory in symmetry-blocked form, NReq=890336.
 IVT=       20986 IEndB=       20986 NGot=    33554432 MDV=    33498375
 LenX=    33498375 LenY=    33497258
 Requested convergence on RMS density matrix=1.00D-08 within 128 cycles.
 Requested convergence on MAX density matrix=1.00D-06.
 Requested convergence on             energy=1.00D-06.
 No special actions if energy rises.
 FoFCou: FMM=F IPFlag=           0 FMFlag=           0 FMFlg1=           0
         NFxFlg=           0 DoJE=F BraDBF=F KetDBF=F FulRan=T
         wScrn=  0.000000 ICntrl=     600 IOpCl=  0 I1Cent=           0 NGrid=           0
         NMat0=    1 NMatS0=    351 NMatT0=    0 NMatD0=    1 NMtDS0=    0 NMtDT0=    0
 Petite list used in FoFCou.

 Cycle   1  Pass 1  IDiag  1:
 E= -114.309036380068    
 DIIS: error= 5.76D-02 at cycle   1 NSaved=   1.
 NSaved= 1 IEnMin= 1 EnMin= -114.309036380068     IErMin= 1 ErrMin= 5.76D-02
 ErrMax= 5.76D-02  0.00D+00 EMaxC= 1.00D-01 BMatC= 1.32D-01 BMatP= 1.32D-01
 IDIUse=3 WtCom= 4.24D-01 WtEn= 5.76D-01
 Coeff-Com:  0.100D+01
 Coeff-En:   0.100D+01
 Coeff:      0.100D+01
 Gap=     0.681 Goal=   None    Shift=    0.000
 GapD=    0.681 DampG=2.000 DampE=0.500 DampFc=1.0000 IDamp=-1.
 RMSDP=1.18D-02 MaxDP=6.74D-02              OVMax= 8.45D-02

 Cycle   2  Pass 1  IDiag  1:
 E= -114.383966129652     Delta-E=       -0.074929749584 Rises=F Damp=F
 DIIS: error= 2.84D-02 at cycle   2 NSaved=   2.
 NSaved= 2 IEnMin= 2 EnMin= -114.383966129652     IErMin= 2 ErrMin= 2.84D-02
 ErrMax= 2.84D-02  0.00D+00 EMaxC= 1.00D-01 BMatC= 1.97D-02 BMatP= 1.32D-01
 IDIUse=3 WtCom= 7.16D-01 WtEn= 2.84D-01
 Coeff-Com:  0.237D+00 0.763D+00
 Coeff-En:   0.000D+00 0.100D+01
 Coeff:      0.170D+00 0.830D+00
 Gap=     0.713 Goal=   None    Shift=    0.000
 RMSDP=4.01D-03 MaxDP=2.49D-02 DE=-7.49D-02 OVMax= 2.22D-02

 Cycle   3  Pass 1  IDiag  1:
 E= -114.396116257297     Delta-E=       -0.012150127645 Rises=F Damp=F
 DIIS: error= 6.24D-03 at cycle   3 NSaved=   3.
 NSaved= 3 IEnMin= 3 EnMin= -114.396116257297     IErMin= 3 ErrMin= 6.24D-03
 ErrMax= 6.24D-03  0.00D+00 EMaxC= 1.00D-01 BMatC= 8.87D-04 BMatP= 1.97D-02
 IDIUse=3 WtCom= 9.38D-01 WtEn= 6.24D-02
 Coeff-Com: -0.151D-01 0.141D+00 0.875D+00
 Coeff-En:   0.000D+00 0.000D+00 0.100D+01
 Coeff:     -0.142D-01 0.132D+00 0.882D+00
 Gap=     0.693 Goal=   None    Shift=    0.000
 RMSDP=7.68D-04 MaxDP=5.74D-03 DE=-1.22D-02 OVMax= 6.26D-03

 Cycle   4  Pass 1  IDiag  1:
 E= -114.396717982642     Delta-E=       -0.000601725344 Rises=F Damp=F
 DIIS: error= 1.29D-03 at cycle   4 NSaved=   4.
 NSaved= 4 IEnMin= 4 EnMin= -114.396717982642     IErMin= 4 ErrMin= 1.29D-03
 ErrMax= 1.29D-03  0.00D+00 EMaxC= 1.00D-01 BMatC= 3.72D-05 BMatP= 8.87D-04
 IDIUse=3 WtCom= 9.87D-01 WtEn= 1.29D-02
 Coeff-Com: -0.767D-02 0.111D-01 0.221D+00 0.775D+00
 Coeff-En:   0.000D+00 0.000D+00 0.000D+00 0.100D+01
 Coeff:     -0.757D-02 0.110D-01 0.218D+00 0.778D+00
 Gap=     0.695 Goal=   None    Shift=    0.000
 RMSDP=1.72D-04 MaxDP=1.04D-03 DE=-6.02D-04 OVMax= 1.28D-03

 Cycle   5  Pass 1  IDiag  1:
 E= -114.396746931188     Delta-E=       -0.000028948547 Rises=F Damp=F
 DIIS: error= 2.35D-04 at cycle   5 NSaved=   5.
 NSaved= 5 IEnMin= 5 EnMin= -114.396746931188     IErMin= 5 ErrMin= 2.35D-04
 ErrMax= 2.35D-04  0.00D+00 EMaxC= 1.00D-01 BMatC= 1.20D-06 BMatP= 3.72D-05
 IDIUse=3 WtCom= 9.98D-01 WtEn= 2.35D-03
 Coeff-Com:  0.255D-02-0.144D-01-0.103D+00-0.135D+00 0.125D+01
 Coeff-En:   0.000D+00 0.000D+00 0.000D+00 0.000D+00 0.100D+01
 Coeff:      0.254D-02-0.144D-01-0.103D+00-0.135D+00 0.125D+01
 Gap=     0.695 Goal=   None    Shift=    0.000
 RMSDP=7.30D-05 MaxDP=3.57D-04 DE=-2.89D-05 OVMax= 5.04D-04

 Cycle   6  Pass 1  IDiag  1:
 E= -114.396748964007     Delta-E=       -0.000002032819 Rises=F Damp=F
 DIIS: error= 4.17D-05 at cycle   6 NSaved=   6.
 NSaved= 6 IEnMin= 6 EnMin= -114.396748964007     IErMin= 6 ErrMin= 4.17D-05
 ErrMax= 4.17D-05  0.00D+00 EMaxC= 1.00D-01 BMatC= 1.36D-08 BMatP= 1.20D-06
 IDIUse=1 WtCom= 1.00D+00 WtEn= 0.00D+00
 Coeff-Com: -0.633D-03 0.408D-02 0.283D-01 0.226D-01-0.368D+00 0.131D+01
 Coeff:     -0.633D-03 0.408D-02 0.283D-01 0.226D-01-0.368D+00 0.131D+01
 Gap=     0.695 Goal=   None    Shift=    0.000
 RMSDP=1.06D-05 MaxDP=5.86D-05 DE=-2.03D-06 OVMax= 6.26D-05

 Cycle   7  Pass 1  IDiag  1:
 E= -114.396748991047     Delta-E=       -0.000000027040 Rises=F Damp=F
 DIIS: error= 3.17D-06 at cycle   7 NSaved=   7.
 NSaved= 7 IEnMin= 7 EnMin= -114.396748991047     IErMin= 7 ErrMin= 3.17D-06
 ErrMax= 3.17D-06  0.00D+00 EMaxC= 1.00D-01 BMatC= 2.03D-10 BMatP= 1.36D-08
 IDIUse=1 WtCom= 1.00D+00 WtEn= 0.00D+00
 Coeff-Com:  0.135D-03-0.894D-03-0.631D-02-0.439D-02 0.845D-01-0.375D+00
 Coeff-Com:  0.130D+01
 Coeff:      0.135D-03-0.894D-03-0.631D-02-0.439D-02 0.845D-01-0.375D+00
 Coeff:      0.130D+01
 Gap=     0.695 Goal=   None    Shift=    0.000
 RMSDP=1.57D-06 MaxDP=8.59D-06 DE=-2.70D-08 OVMax= 1.21D-05

 Cycle   8  Pass 1  IDiag  1:
 E= -114.396748991572     Delta-E=       -0.000000000525 Rises=F Damp=F
 DIIS: error= 4.88D-07 at cycle   8 NSaved=   8.
 NSaved= 8 IEnMin= 8 EnMin= -114.396748991572     IErMin= 8 ErrMin= 4.88D-07
 ErrMax= 4.88D-07  0.00D+00 EMaxC= 1.00D-01 BMatC= 7.61D-12 BMatP= 2.03D-10
 IDIUse=1 WtCom= 1.00D+00 WtEn= 0.00D+00
 Coeff-Com: -0.201D-04 0.135D-03 0.964D-03 0.293D-03-0.126D-01 0.683D-01
 Coeff-Com: -0.356D+00 0.130D+01
 Coeff:     -0.201D-04 0.135D-03 0.964D-03 0.293D-03-0.126D-01 0.683D-01
 Coeff:     -0.356D+00 0.130D+01
 Gap=     0.695 Goal=   None    Shift=    0.000
 RMSDP=2.57D-07 MaxDP=1.07D-06 DE=-5.25D-10 OVMax= 2.52D-06

 Cycle   9  Pass 1  IDiag  1:
 E= -114.396748991590     Delta-E=       -0.000000000017 Rises=F Damp=F
 DIIS: error= 1.25D-07 at cycle   9 NSaved=   9.
 NSaved= 9 IEnMin= 9 EnMin= -114.396748991590     IErMin= 9 ErrMin= 1.25D-07
 ErrMax= 1.25D-07  0.00D+00 EMaxC= 1.00D-01 BMatC= 2.65D-13 BMatP= 7.61D-12
 IDIUse=1 WtCom= 1.00D+00 WtEn= 0.00D+00
 Coeff-Com:  0.531D-05-0.365D-04-0.260D-03-0.973D-05 0.331D-02-0.199D-01
 Coeff-Com:  0.122D+00-0.596D+00 0.149D+01
 Coeff:      0.531D-05-0.365D-04-0.260D-03-0.973D-05 0.331D-02-0.199D-01
 Coeff:      0.122D+00-0.596D+00 0.149D+01
 Gap=     0.695 Goal=   None    Shift=    0.000
 RMSDP=6.25D-08 MaxDP=5.39D-07 DE=-1.73D-11 OVMax= 7.11D-07

 Cycle  10  Pass 1  IDiag  1:
 E= -114.396748991590     Delta-E=       -0.000000000001 Rises=F Damp=F
 DIIS: error= 1.52D-08 at cycle  10 NSaved=  10.
 NSaved=10 IEnMin=10 EnMin= -114.396748991590     IErMin=10 ErrMin= 1.52D-08
 ErrMax= 1.52D-08  0.00D+00 EMaxC= 1.00D-01 BMatC= 7.13D-15 BMatP= 2.65D-13
 IDIUse=1 WtCom= 1.00D+00 WtEn= 0.00D+00
 Coeff-Com: -0.101D-05 0.694D-05 0.508D-04-0.115D-04-0.643D-03 0.431D-02
 Coeff-Com: -0.288D-01 0.155D+00-0.495D+00 0.136D+01
 Coeff:     -0.101D-05 0.694D-05 0.508D-04-0.115D-04-0.643D-03 0.431D-02
 Coeff:     -0.288D-01 0.155D+00-0.495D+00 0.136D+01
 Gap=     0.695 Goal=   None    Shift=    0.000
 RMSDP=8.39D-09 MaxDP=6.53D-08 DE=-8.81D-13 OVMax= 8.64D-08

 SCF Done:  E(RHF) =  -114.396748992     A.U. after   10 cycles
            NFock= 10  Conv=0.84D-08     -V/T= 2.0026
 KE= 1.140997501530D+02 PE=-3.499157053050D+02 EE= 8.122037499706D+01
 Leave Link  502 at Wed Apr 24 20:08:31 2013, MaxMem=    33554432 cpu:         0.1
 (Enter /mf/frisch/g09/l601.exe)
 Copying SCF densities to generalized density rwf, IOpCl= 0 IROHF=0.

 **********************************************************************

            Population analysis using the SCF density.

 **********************************************************************

 Orbital symmetries:
       Occupied  (A') (A') (A') (A') (A') (A") (A') (A') (A")
       Virtual   (A') (A') (A') (A") (A') (A') (A") (A') (A') (A')
                 (A") (A') (A') (A") (A') (A') (A')
 The electronic state is 1-A'.
 Alpha  occ. eigenvalues --  -20.43245 -11.21389  -1.33982  -0.92345  -0.66884
 Alpha  occ. eigenvalues --   -0.61671  -0.58285  -0.47795  -0.43163
 Alpha virt. eigenvalues --    0.26338   0.31625   0.34844   0.35134   0.42610
 Alpha virt. eigenvalues --    0.95292   0.96460   0.96971   1.24569   1.29781
 Alpha virt. eigenvalues --    1.31567   1.36267   1.87928   1.88085   1.98004
 Alpha virt. eigenvalues --    2.14734   3.34419
          Condensed to atoms (all electrons):
               1          2          3          4          5          6
     1  O    8.286163   0.269799   0.225875  -0.025768  -0.036490  -0.036490
     2  H    0.269799   0.407528  -0.050058   0.004422  -0.003083  -0.003083
     3  C    0.225875  -0.050058   5.001248   0.371574   0.355156   0.355156
     4  H   -0.025768   0.004422   0.371574   0.499730  -0.032717  -0.032717
     5  H   -0.036490  -0.003083   0.355156  -0.032717   0.582797  -0.041707
     6  H   -0.036490  -0.003083   0.355156  -0.032717  -0.041707   0.582797
 Mulliken charges:
               1
     1  O   -0.683087
     2  H    0.374476
     3  C   -0.258951
     4  H    0.215476
     5  H    0.176043
     6  H    0.176043
 Sum of Mulliken charges =   0.00000
 Mulliken charges with hydrogens summed into heavy atoms:
               1
     1  O   -0.308611
     3  C    0.308611
 Electronic spatial extent (au):  <R**2>=             84.1384
 Charge=              0.0000 electrons
 Dipole moment (field-independent basis, Debye):
    X=              1.6873    Y=              1.3163    Z=              0.0000  Tot=              2.1400
 Quadrupole moment (field-independent basis, Debye-Ang):
   XX=            -11.5600   YY=            -13.0635   ZZ=            -13.4915
   XY=             -2.4496   XZ=              0.0000   YZ=              0.0000
 Traceless Quadrupole moment (field-independent basis, Debye-Ang):
   XX=              1.1450   YY=             -0.3585   ZZ=             -0.7865
   XY=             -2.4496   XZ=              0.0000   YZ=              0.0000
 Octapole moment (field-independent basis, Debye-Ang**2):
  XXX=              1.0868  YYY=             -3.8959  ZZZ=              0.0000  XYY=              2.2664
  XXY=             -2.1978  XXZ=              0.0000  XZZ=              0.6691  YZZ=             -0.7702
  YYZ=              0.0000  XYZ=              0.0000
 Hexadecapole moment (field-independent basis, Debye-Ang**3):
 XXXX=            -17.5557 YYYY=            -59.6964 ZZZZ=            -17.8826 XXXY=             -1.0941
 XXXZ=              0.0000 YYYX=             -1.5256 YYYZ=              0.0000 ZZZX=              0.0000
 ZZZY=              0.0000 XXYY=            -11.3577 XXZZ=             -6.2306 YYZZ=            -13.1779
 XXYZ=              0.0000 YYXZ=              0.0000 ZZXY=              0.8534
 N-N= 4.019883116335D+01 E-N=-3.499157053808D+02  KE= 1.140997501530D+02
 Symmetry A'   KE= 1.074732867576D+02
 Symmetry A"   KE= 6.626463395432D+00
 No NMR shielding tensors so no spin-rotation constants.
 Leave Link  601 at Wed Apr 24 20:08:31 2013, MaxMem=    33554432 cpu:         0.1
 (Enter /mf/frisch/g09/l602.exe)
 FitSet:  NAtFit=     6 NAtPot=     6 NAtFrz=     0 MDM=    10 TotChg=   0.00000
 Merz-Kollman atomic radii used.

 **********************************************************************

            Electrostatic Properties Using The SCF Density

 **********************************************************************

       Atomic Center    1 is at  -0.050283 -0.757778  0.000000
       Atomic Center    2 is at   0.854814 -1.077778  0.000000
       Atomic Center    3 is at  -0.050283  0.672222  0.000000
       Atomic Center    4 is at  -1.077945  1.035556  0.000000
       Atomic Center    5 is at   0.463548  1.035556  0.889981
       Atomic Center    6 is at   0.463548  1.035556 -0.889981
     426 points will be used for fitting atomic charges
 Fitting point charges to electrostatic potential
 The dipole moment will be constrained to the correct value
 Charges from ESP fit, RMS=   0.00209 RRMS=   0.11253:
 ESP charges:
               1
     1  O   -0.727423
     2  H    0.448445
     3  C    0.227768
     4  H    0.052495
     5  H   -0.000643
     6  H   -0.000643
 Sum of ESP charges =   0.00000
 ESP charges with hydrogens summed into heavy atoms:
               1
     1  O   -0.278977
     3  C    0.278977
 Charge=   0.00000 Dipole=     1.6873     1.3163     0.0000 Tot=     2.1400
 -----------------------------------------------------------------

              Electrostatic Properties (Atomic Units)

 -----------------------------------------------------------------
    Center     Electric         -------- Electric Field --------
               Potential          X             Y             Z
 -----------------------------------------------------------------
    1 Atom    -22.212822
    2 Atom     -0.992056
    3 Atom    -14.586733
    4 Atom     -1.096839
    5 Atom     -1.103084
    6 Atom     -1.103084
 -----------------------------------------------------------------
 Leave Link  602 at Wed Apr 24 20:08:31 2013, MaxMem=    33554432 cpu:         0.0
 (Enter /mf/frisch/g09/l9999.exe)

 Test job not archived.
 1\1\GINC-ALTUV\SP\RHF\3-21G\C1H4O1\FRISCH\24-Apr-2013\0\\#p rhf/3-21g 
 pop=(mk,dipole) test geom=modela\\Gaussian Test Job 200 (Part 2): Meth
 anol charges via electrostatic potential fit with dipole constraint\\0
 ,1\O\H,1,0.96\C,1,1.43,2,109.47122063\H,3,1.09,1,109.47122063,2,180.,0
 \H,3,1.09,1,109.47122063,2,-60.,0\H,3,1.09,1,109.47122063,2,60.,0\\Ver
 sion=ES64L-G09RevD.01\State=1-A'\HF=-114.396749\RMSD=8.389e-09\Dipole=
 0.7095186,0.,0.453236\Quadrupole=-1.2870475,-0.584731,1.8717785,0.,-1.
 0652141,0.\PG=CS [SG(C1H2O1),X(H2)]\\@


      SCIENCE SANS CONSCIENCE N'EST QUE RUINE DE L'AME.

                                                  -- RABELAIS
 Job cpu time:       0 days  0 hours  0 minutes  1.2 seconds.
 File lengths (MBytes):  RWF=      5 Int=      0 D2E=      0 Chk=      1 Scr=      1
 Normal termination of Gaussian 09 at Wed Apr 24 20:08:31 2013.
 Initial command:
 /mf/frisch/g09/l1.exe "/altuv/s0/scratch/Gau-34175.inp" -scrdir="/altuv/s0/scratch/"
 Default CPUs for threads: 0
 Entering Link 1 = /mf/frisch/g09/l1.exe PID=     34193.
  
 Copyright (c) 1988,1990,1992,1993,1995,1998,2003,2009,2013,
            Gaussian, Inc.  All Rights Reserved.
  
 This is part of the Gaussian(R) 09 program.  It is based on
 the Gaussian(R) 03 system (copyright 2003, Gaussian, Inc.),
 the Gaussian(R) 98 system (copyright 1998, Gaussian, Inc.),
 the Gaussian(R) 94 system (copyright 1995, Gaussian, Inc.),
 the Gaussian 92(TM) system (copyright 1992, Gaussian, Inc.),
 the Gaussian 90(TM) system (copyright 1990, Gaussian, Inc.),
 the Gaussian 88(TM) system (copyright 1988, Gaussian, Inc.),
 the Gaussian 86(TM) system (copyright 1986, Carnegie Mellon
 University), and the Gaussian 82(TM) system (copyright 1983,
 Carnegie Mellon University). Gaussian is a federally registered
 trademark of Gaussian, Inc.
  
 This software contains proprietary and confidential information,
 including trade secrets, belonging to Gaussian, Inc.
  
 This software is provided under written license and may be
 used, copied, transmitted, or stored only in accord with that
 written license.
  
 The following legend is applicable only to US Government
 contracts under FAR:
  
                    RESTRICTED RIGHTS LEGEND
  
 Use, reproduction and disclosure by the US Government is
 subject to restrictions as set forth in subparagraphs (a)
 and (c) of the Commercial Computer Software - Restricted
 Rights clause in FAR 52.227-19.
  
 Gaussian, Inc.
 340 Quinnipiac St., Bldg. 40, Wallingford CT 06492
  
  
 ---------------------------------------------------------------
 Warning -- This program may not be used in any manner that
 competes with the business of Gaussian, Inc. or will provide
 assistance to any competitor of Gaussian, Inc.  The licensee
 of this program is prohibited from giving any competitor of
 Gaussian, Inc. access to this program.  By using this program,
 the user acknowledges that Gaussian, Inc. is engaged in the
 business of creating and licensing software in the field of
 computational chemistry and represents and warrants to the
 licensee that it is not a competitor of Gaussian, Inc. and that
 it will not use this program in any manner prohibited above.
 ---------------------------------------------------------------
  

 Cite this work as:
 Gaussian 09, Revision D.01,
 M. J. Frisch, G. W. Trucks, H. B. Schlegel, G. E. Scuseria, 
 M. A. Robb, J. R. Cheeseman, G. Scalmani, V. Barone, B. Mennucci, 
 G. A. Petersson, H. Nakatsuji, M. Caricato, X. Li, H. P. Hratchian, 
 A. F. Izmaylov, J. Bloino, G. Zheng, J. L. Sonnenberg, M. Hada, 
 M. Ehara, K. Toyota, R. Fukuda, J. Hasegawa, M. Ishida, T. Nakajima, 
 Y. Honda, O. Kitao, H. Nakai, T. Vreven, J. A. Montgomery, Jr., 
 J. E. Peralta, F. Ogliaro, M. Bearpark, J. J. Heyd, E. Brothers, 
 K. N. Kudin, V. N. Staroverov, T. Keith, R. Kobayashi, J. Normand, 
 K. Raghavachari, A. Rendell, J. C. Burant, S. S. Iyengar, J. Tomasi, 
 M. Cossi, N. Rega, J. M. Millam, M. Klene, J. E. Knox, J. B. Cross, 
 V. Bakken, C. Adamo, J. Jaramillo, R. Gomperts, R. E. Stratmann, 
 O. Yazyev, A. J. Austin, R. Cammi, C. Pomelli, J. W. Ochterski, 
 R. L. Martin, K. Morokuma, V. G. Zakrzewski, G. A. Voth, 
 P. Salvador, J. J. Dannenberg, S. Dapprich, A. D. Daniels, 
 O. Farkas, J. B. Foresman, J. V. Ortiz, J. Cioslowski, 
 and D. J. Fox, Gaussian, Inc., Wallingford CT, 2013.
 
 ******************************************
 Gaussian 09:  ES64L-G09RevD.01 24-Apr-2013
                24-Apr-2013 
 ******************************************
 SetSPE:  set environment variable "MP_BIND" = "yes"
 SetSPE:  set environment variable "MP_BLIST" = "0"
 -------------------------------------------------
 #p rhf/3-21g pop=(mk,atomdipole) test geom=modela
 -------------------------------------------------
 1/29=4,38=1/1;
 2/12=2,17=6,18=5,40=1/2;
 3/5=5,11=1,16=1,25=1,30=1,116=1/1,2,3;
 4//1;
 5/5=2,38=5/2;
 6/7=2,8=2,9=2,10=2,15=72,20=1,28=1/1,2;
 99/5=1,9=1/99;
 Leave Link    1 at Wed Apr 24 20:08:31 2013, MaxMem=           0 cpu:         0.1
 (Enter /mf/frisch/g09/l101.exe)
 ----------------------------------------------------------------------
 Gaussian Test Job 200 (Part 3): Methanol charges via electrostatic pot
 ential fit with dipole constraint
 ----------------------------------------------------------------------
 Charge =  0 Multiplicity = 1
 Model A used to generate z-matrix:
 Short formula matrix:
   Atom   Symbol  Geom  Angle     Array F
    1        O    Bent         2   3   0   0
    2        H                 1   0   0   0
    3        C    Tetr         1   4   5   6
    4        H                 3   0   0   0
    5        H                 3   0   0   0
    6        H                 3   0   0   0
 Generated Z-Matrix:
 O
 H,1,R2
 C,1,R3,2,A3
 H,3,R4,1,A4,2,180.,0
 H,3,R5,1,A5,2,D5,0
 H,3,R5,1,A5,2,-D5,0
      Variables:
 R2=0.96
 R3=1.43
 R4=1.09
 R5=1.09
 A3=109.47122063
 A4=109.47122063
 A5=109.47122063
 D5=-60.
     4 tetrahedral angles replaced.
 NAtoms=      6 NQM=        6 NQMF=       0 NMMI=      0 NMMIF=      0
                NMic=       0 NMicF=      0.
    4 tetrahedral angles replaced.
                    Isotopes and Nuclear Properties:
 (Nuclear quadrupole moments (NQMom) in fm**2, nuclear magnetic moments (NMagM)
  in nuclear magnetons)

  Atom         1           2           3           4           5           6
 IAtWgt=          16           1          12           1           1           1
 AtmWgt=  15.9949146   1.0078250  12.0000000   1.0078250   1.0078250   1.0078250
 NucSpn=           0           1           0           1           1           1
 AtZEff=   0.0000000   0.0000000   0.0000000   0.0000000   0.0000000   0.0000000
 NQMom=    0.0000000   0.0000000   0.0000000   0.0000000   0.0000000   0.0000000
 NMagM=    0.0000000   2.7928460   0.0000000   2.7928460   2.7928460   2.7928460
 AtZNuc=   8.0000000   1.0000000   6.0000000   1.0000000   1.0000000   1.0000000
 Leave Link  101 at Wed Apr 24 20:08:31 2013, MaxMem=    33554432 cpu:         0.2
 (Enter /mf/frisch/g09/l202.exe)
                          Input orientation:                          
 ---------------------------------------------------------------------
 Center     Atomic      Atomic             Coordinates (Angstroms)
 Number     Number       Type             X           Y           Z
 ---------------------------------------------------------------------
      1          8           0        0.000000    0.000000    0.000000
      2          1           0        0.000000    0.000000    0.960000
      3          6           0        1.348217    0.000000   -0.476667
      4          1           0        1.348217    0.000000   -1.566667
      5          1           0        1.862048    0.889981   -0.113333
      6          1           0        1.862048   -0.889981   -0.113333
 ---------------------------------------------------------------------
                    Distance matrix (angstroms):
                    1          2          3          4          5
     1  O    0.000000
     2  H    0.960000   0.000000
     3  C    1.430000   1.970203   0.000000
     4  H    2.066914   2.863867   1.090000   0.000000
     5  H    2.066914   2.326227   1.090000   1.779963   0.000000
     6  H    2.066914   2.326227   1.090000   1.779963   1.779963
                    6
     6  H    0.000000
 Stoichiometry    CH4O
 Framework group  CS[SG(CH2O),X(H2)]
 Deg. of freedom     8
 Full point group                 CS      NOp   2
 Largest Abelian subgroup         CS      NOp   2
 Largest concise Abelian subgroup CS      NOp   2
                         Standard orientation:                         
 ---------------------------------------------------------------------
 Center     Atomic      Atomic             Coordinates (Angstroms)
 Number     Number       Type             X           Y           Z
 ---------------------------------------------------------------------
      1          8           0       -0.050283   -0.757778    0.000000
      2          1           0        0.854814   -1.077778    0.000000
      3          6           0       -0.050283    0.672222    0.000000
      4          1           0       -1.077945    1.035556    0.000000
      5          1           0        0.463548    1.035556    0.889981
      6          1           0        0.463548    1.035556   -0.889981
 ---------------------------------------------------------------------
 Rotational constants (GHZ):    128.2399015     24.6015268     23.7373947
 Leave Link  202 at Wed Apr 24 20:08:31 2013, MaxMem=    33554432 cpu:         0.0
 (Enter /mf/frisch/g09/l301.exe)
 Standard basis: 3-21G (6D, 7F)
 Ernie: Thresh=  0.10000D-02 Tol=  0.10000D-05 Strict=F.
 There are    20 symmetry adapted cartesian basis functions of A'  symmetry.
 There are     6 symmetry adapted cartesian basis functions of A"  symmetry.
 There are    20 symmetry adapted basis functions of A'  symmetry.
 There are     6 symmetry adapted basis functions of A"  symmetry.
    26 basis functions,    42 primitive gaussians,    26 cartesian basis functions
     9 alpha electrons        9 beta electrons
       nuclear repulsion energy        40.1988311633 Hartrees.
 IExCor=    0 DFT=F Ex=HF Corr=None ExCW=0 ScaHFX=  1.000000
 ScaDFX=  1.000000  1.000000  1.000000  1.000000 ScalE2=  1.000000  1.000000
 IRadAn=      0 IRanWt=     -1 IRanGd=            0 ICorTp=0 IEmpDi=  4
 NAtoms=    6 NActive=    6 NUniq=    5 SFac= 1.44D+00 NAtFMM=   60 NAOKFM=F Big=F
 Integral buffers will be    131072 words long.
 Raffenetti 1 integral format.
 Two-electron integral symmetry is turned on.
 Leave Link  301 at Wed Apr 24 20:08:31 2013, MaxMem=    33554432 cpu:         0.1
 (Enter /mf/frisch/g09/l302.exe)
 NPDir=0 NMtPBC=     1 NCelOv=     1 NCel=       1 NClECP=     1 NCelD=      1
         NCelK=      1 NCelE2=     1 NClLst=     1 CellRange=     0.0.
 One-electron integrals computed using PRISM.
 One-electron integral symmetry used in STVInt
 NBasis=    26 RedAO= T EigKep=  3.91D-02  NBF=    20     6
 NBsUse=    26 1.00D-06 EigRej= -1.00D+00 NBFU=    20     6
 Leave Link  302 at Wed Apr 24 20:08:32 2013, MaxMem=    33554432 cpu:         0.1
 (Enter /mf/frisch/g09/l303.exe)
 DipDrv:  MaxL=1.
 Leave Link  303 at Wed Apr 24 20:08:32 2013, MaxMem=    33554432 cpu:         0.0
 (Enter /mf/frisch/g09/l401.exe)
 ExpMin= 1.83D-01 ExpMax= 3.22D+02 ExpMxC= 3.22D+02 IAcc=1 IRadAn=         1 AccDes= 0.00D+00
 Harris functional with IExCor=  205 and IRadAn=       1 diagonalized for initial guess.
 HarFok:  IExCor=  205 AccDes= 0.00D+00 IRadAn=         1 IDoV= 1 UseB2=F ITyADJ=14
 ICtDFT=  3500011 ScaDFX=  1.000000  1.000000  1.000000  1.000000
 FoFCou: FMM=F IPFlag=           0 FMFlag=      100000 FMFlg1=           0
         NFxFlg=           0 DoJE=T BraDBF=F KetDBF=T FulRan=T
         wScrn=  0.000000 ICntrl=     500 IOpCl=  0 I1Cent=   200000004 NGrid=           0
         NMat0=    1 NMatS0=      1 NMatT0=    0 NMatD0=    1 NMtDS0=    0 NMtDT0=    0
 Petite list used in FoFCou.
 Harris En= -114.568817072228    
 JPrj=0 DoOrth=F DoCkMO=F.
 Initial guess orbital symmetries:
       Occupied  (A') (A') (A') (A') (A') (A") (A') (A') (A")
       Virtual   (A') (A') (A') (A") (A') (A') (A") (A') (A') (A')
                 (A") (A') (A") (A') (A') (A') (A')
 The electronic state of the initial guess is 1-A'.
 Leave Link  401 at Wed Apr 24 20:08:32 2013, MaxMem=    33554432 cpu:         0.1
 (Enter /mf/frisch/g09/l502.exe)
 Closed shell SCF:
 Using DIIS extrapolation, IDIIS=  1040.
 Integral symmetry usage will be decided dynamically.
 Keep R1 ints in memory in symmetry-blocked form, NReq=890336.
 IVT=       20986 IEndB=       20986 NGot=    33554432 MDV=    33498375
 LenX=    33498375 LenY=    33497258
 Requested convergence on RMS density matrix=1.00D-08 within 128 cycles.
 Requested convergence on MAX density matrix=1.00D-06.
 Requested convergence on             energy=1.00D-06.
 No special actions if energy rises.
 FoFCou: FMM=F IPFlag=           0 FMFlag=           0 FMFlg1=           0
         NFxFlg=           0 DoJE=F BraDBF=F KetDBF=F FulRan=T
         wScrn=  0.000000 ICntrl=     600 IOpCl=  0 I1Cent=           0 NGrid=           0
         NMat0=    1 NMatS0=    351 NMatT0=    0 NMatD0=    1 NMtDS0=    0 NMtDT0=    0
 Petite list used in FoFCou.

 Cycle   1  Pass 1  IDiag  1:
 E= -114.309036380068    
 DIIS: error= 5.76D-02 at cycle   1 NSaved=   1.
 NSaved= 1 IEnMin= 1 EnMin= -114.309036380068     IErMin= 1 ErrMin= 5.76D-02
 ErrMax= 5.76D-02  0.00D+00 EMaxC= 1.00D-01 BMatC= 1.32D-01 BMatP= 1.32D-01
 IDIUse=3 WtCom= 4.24D-01 WtEn= 5.76D-01
 Coeff-Com:  0.100D+01
 Coeff-En:   0.100D+01
 Coeff:      0.100D+01
 Gap=     0.681 Goal=   None    Shift=    0.000
 GapD=    0.681 DampG=2.000 DampE=0.500 DampFc=1.0000 IDamp=-1.
 RMSDP=1.18D-02 MaxDP=6.74D-02              OVMax= 8.45D-02

 Cycle   2  Pass 1  IDiag  1:
 E= -114.383966129652     Delta-E=       -0.074929749584 Rises=F Damp=F
 DIIS: error= 2.84D-02 at cycle   2 NSaved=   2.
 NSaved= 2 IEnMin= 2 EnMin= -114.383966129652     IErMin= 2 ErrMin= 2.84D-02
 ErrMax= 2.84D-02  0.00D+00 EMaxC= 1.00D-01 BMatC= 1.97D-02 BMatP= 1.32D-01
 IDIUse=3 WtCom= 7.16D-01 WtEn= 2.84D-01
 Coeff-Com:  0.237D+00 0.763D+00
 Coeff-En:   0.000D+00 0.100D+01
 Coeff:      0.170D+00 0.830D+00
 Gap=     0.713 Goal=   None    Shift=    0.000
 RMSDP=4.01D-03 MaxDP=2.49D-02 DE=-7.49D-02 OVMax= 2.22D-02

 Cycle   3  Pass 1  IDiag  1:
 E= -114.396116257297     Delta-E=       -0.012150127645 Rises=F Damp=F
 DIIS: error= 6.24D-03 at cycle   3 NSaved=   3.
 NSaved= 3 IEnMin= 3 EnMin= -114.396116257297     IErMin= 3 ErrMin= 6.24D-03
 ErrMax= 6.24D-03  0.00D+00 EMaxC= 1.00D-01 BMatC= 8.87D-04 BMatP= 1.97D-02
 IDIUse=3 WtCom= 9.38D-01 WtEn= 6.24D-02
 Coeff-Com: -0.151D-01 0.141D+00 0.875D+00
 Coeff-En:   0.000D+00 0.000D+00 0.100D+01
 Coeff:     -0.142D-01 0.132D+00 0.882D+00
 Gap=     0.693 Goal=   None    Shift=    0.000
 RMSDP=7.68D-04 MaxDP=5.74D-03 DE=-1.22D-02 OVMax= 6.26D-03

 Cycle   4  Pass 1  IDiag  1:
 E= -114.396717982642     Delta-E=       -0.000601725344 Rises=F Damp=F
 DIIS: error= 1.29D-03 at cycle   4 NSaved=   4.
 NSaved= 4 IEnMin= 4 EnMin= -114.396717982642     IErMin= 4 ErrMin= 1.29D-03
 ErrMax= 1.29D-03  0.00D+00 EMaxC= 1.00D-01 BMatC= 3.72D-05 BMatP= 8.87D-04
 IDIUse=3 WtCom= 9.87D-01 WtEn= 1.29D-02
 Coeff-Com: -0.767D-02 0.111D-01 0.221D+00 0.775D+00
 Coeff-En:   0.000D+00 0.000D+00 0.000D+00 0.100D+01
 Coeff:     -0.757D-02 0.110D-01 0.218D+00 0.778D+00
 Gap=     0.695 Goal=   None    Shift=    0.000
 RMSDP=1.72D-04 MaxDP=1.04D-03 DE=-6.02D-04 OVMax= 1.28D-03

 Cycle   5  Pass 1  IDiag  1:
 E= -114.396746931188     Delta-E=       -0.000028948547 Rises=F Damp=F
 DIIS: error= 2.35D-04 at cycle   5 NSaved=   5.
 NSaved= 5 IEnMin= 5 EnMin= -114.396746931188     IErMin= 5 ErrMin= 2.35D-04
 ErrMax= 2.35D-04  0.00D+00 EMaxC= 1.00D-01 BMatC= 1.20D-06 BMatP= 3.72D-05
 IDIUse=3 WtCom= 9.98D-01 WtEn= 2.35D-03
 Coeff-Com:  0.255D-02-0.144D-01-0.103D+00-0.135D+00 0.125D+01
 Coeff-En:   0.000D+00 0.000D+00 0.000D+00 0.000D+00 0.100D+01
 Coeff:      0.254D-02-0.144D-01-0.103D+00-0.135D+00 0.125D+01
 Gap=     0.695 Goal=   None    Shift=    0.000
 RMSDP=7.30D-05 MaxDP=3.57D-04 DE=-2.89D-05 OVMax= 5.04D-04

 Cycle   6  Pass 1  IDiag  1:
 E= -114.396748964007     Delta-E=       -0.000002032819 Rises=F Damp=F
 DIIS: error= 4.17D-05 at cycle   6 NSaved=   6.
 NSaved= 6 IEnMin= 6 EnMin= -114.396748964007     IErMin= 6 ErrMin= 4.17D-05
 ErrMax= 4.17D-05  0.00D+00 EMaxC= 1.00D-01 BMatC= 1.36D-08 BMatP= 1.20D-06
 IDIUse=1 WtCom= 1.00D+00 WtEn= 0.00D+00
 Coeff-Com: -0.633D-03 0.408D-02 0.283D-01 0.226D-01-0.368D+00 0.131D+01
 Coeff:     -0.633D-03 0.408D-02 0.283D-01 0.226D-01-0.368D+00 0.131D+01
 Gap=     0.695 Goal=   None    Shift=    0.000
 RMSDP=1.06D-05 MaxDP=5.86D-05 DE=-2.03D-06 OVMax= 6.26D-05

 Cycle   7  Pass 1  IDiag  1:
 E= -114.396748991047     Delta-E=       -0.000000027040 Rises=F Damp=F
 DIIS: error= 3.17D-06 at cycle   7 NSaved=   7.
 NSaved= 7 IEnMin= 7 EnMin= -114.396748991047     IErMin= 7 ErrMin= 3.17D-06
 ErrMax= 3.17D-06  0.00D+00 EMaxC= 1.00D-01 BMatC= 2.03D-10 BMatP= 1.36D-08
 IDIUse=1 WtCom= 1.00D+00 WtEn= 0.00D+00
 Coeff-Com:  0.135D-03-0.894D-03-0.631D-02-0.439D-02 0.845D-01-0.375D+00
 Coeff-Com:  0.130D+01
 Coeff:      0.135D-03-0.894D-03-0.631D-02-0.439D-02 0.845D-01-0.375D+00
 Coeff:      0.130D+01
 Gap=     0.695 Goal=   None    Shift=    0.000
 RMSDP=1.57D-06 MaxDP=8.59D-06 DE=-2.70D-08 OVMax= 1.21D-05

 Cycle   8  Pass 1  IDiag  1:
 E= -114.396748991572     Delta-E=       -0.000000000525 Rises=F Damp=F
 DIIS: error= 4.88D-07 at cycle   8 NSaved=   8.
 NSaved= 8 IEnMin= 8 EnMin= -114.396748991572     IErMin= 8 ErrMin= 4.88D-07
 ErrMax= 4.88D-07  0.00D+00 EMaxC= 1.00D-01 BMatC= 7.61D-12 BMatP= 2.03D-10
 IDIUse=1 WtCom= 1.00D+00 WtEn= 0.00D+00
 Coeff-Com: -0.201D-04 0.135D-03 0.964D-03 0.293D-03-0.126D-01 0.683D-01
 Coeff-Com: -0.356D+00 0.130D+01
 Coeff:     -0.201D-04 0.135D-03 0.964D-03 0.293D-03-0.126D-01 0.683D-01
 Coeff:     -0.356D+00 0.130D+01
 Gap=     0.695 Goal=   None    Shift=    0.000
 RMSDP=2.57D-07 MaxDP=1.07D-06 DE=-5.25D-10 OVMax= 2.52D-06

 Cycle   9  Pass 1  IDiag  1:
 E= -114.396748991590     Delta-E=       -0.000000000017 Rises=F Damp=F
 DIIS: error= 1.25D-07 at cycle   9 NSaved=   9.
 NSaved= 9 IEnMin= 9 EnMin= -114.396748991590     IErMin= 9 ErrMin= 1.25D-07
 ErrMax= 1.25D-07  0.00D+00 EMaxC= 1.00D-01 BMatC= 2.65D-13 BMatP= 7.61D-12
 IDIUse=1 WtCom= 1.00D+00 WtEn= 0.00D+00
 Coeff-Com:  0.531D-05-0.365D-04-0.260D-03-0.973D-05 0.331D-02-0.199D-01
 Coeff-Com:  0.122D+00-0.596D+00 0.149D+01
 Coeff:      0.531D-05-0.365D-04-0.260D-03-0.973D-05 0.331D-02-0.199D-01
 Coeff:      0.122D+00-0.596D+00 0.149D+01
 Gap=     0.695 Goal=   None    Shift=    0.000
 RMSDP=6.25D-08 MaxDP=5.39D-07 DE=-1.73D-11 OVMax= 7.11D-07

 Cycle  10  Pass 1  IDiag  1:
 E= -114.396748991590     Delta-E=       -0.000000000001 Rises=F Damp=F
 DIIS: error= 1.52D-08 at cycle  10 NSaved=  10.
 NSaved=10 IEnMin=10 EnMin= -114.396748991590     IErMin=10 ErrMin= 1.52D-08
 ErrMax= 1.52D-08  0.00D+00 EMaxC= 1.00D-01 BMatC= 7.13D-15 BMatP= 2.65D-13
 IDIUse=1 WtCom= 1.00D+00 WtEn= 0.00D+00
 Coeff-Com: -0.101D-05 0.694D-05 0.508D-04-0.115D-04-0.643D-03 0.431D-02
 Coeff-Com: -0.288D-01 0.155D+00-0.495D+00 0.136D+01
 Coeff:     -0.101D-05 0.694D-05 0.508D-04-0.115D-04-0.643D-03 0.431D-02
 Coeff:     -0.288D-01 0.155D+00-0.495D+00 0.136D+01
 Gap=     0.695 Goal=   None    Shift=    0.000
 RMSDP=8.39D-09 MaxDP=6.53D-08 DE=-8.81D-13 OVMax= 8.64D-08

 SCF Done:  E(RHF) =  -114.396748992     A.U. after   10 cycles
            NFock= 10  Conv=0.84D-08     -V/T= 2.0026
 KE= 1.140997501530D+02 PE=-3.499157053050D+02 EE= 8.122037499706D+01
 Leave Link  502 at Wed Apr 24 20:08:32 2013, MaxMem=    33554432 cpu:         0.1
 (Enter /mf/frisch/g09/l601.exe)
 Copying SCF densities to generalized density rwf, IOpCl= 0 IROHF=0.

 **********************************************************************

            Population analysis using the SCF density.

 **********************************************************************

 Orbital symmetries:
       Occupied  (A') (A') (A') (A') (A') (A") (A') (A') (A")
       Virtual   (A') (A') (A') (A") (A') (A') (A") (A') (A') (A')
                 (A") (A') (A') (A") (A') (A') (A')
 The electronic state is 1-A'.
 Alpha  occ. eigenvalues --  -20.43245 -11.21389  -1.33982  -0.92345  -0.66884
 Alpha  occ. eigenvalues --   -0.61671  -0.58285  -0.47795  -0.43163
 Alpha virt. eigenvalues --    0.26338   0.31625   0.34844   0.35134   0.42610
 Alpha virt. eigenvalues --    0.95292   0.96460   0.96971   1.24569   1.29781
 Alpha virt. eigenvalues --    1.31567   1.36267   1.87928   1.88085   1.98004
 Alpha virt. eigenvalues --    2.14734   3.34419
          Condensed to atoms (all electrons):
               1          2          3          4          5          6
     1  O    8.286163   0.269799   0.225875  -0.025768  -0.036490  -0.036490
     2  H    0.269799   0.407528  -0.050058   0.004422  -0.003083  -0.003083
     3  C    0.225875  -0.050058   5.001248   0.371574   0.355156   0.355156
     4  H   -0.025768   0.004422   0.371574   0.499730  -0.032717  -0.032717
     5  H   -0.036490  -0.003083   0.355156  -0.032717   0.582797  -0.041707
     6  H   -0.036490  -0.003083   0.355156  -0.032717  -0.041707   0.582797
 Mulliken charges:
               1
     1  O   -0.683087
     2  H    0.374476
     3  C   -0.258951
     4  H    0.215476
     5  H    0.176043
     6  H    0.176043
 Sum of Mulliken charges =   0.00000
 Mulliken charges with hydrogens summed into heavy atoms:
               1
     1  O   -0.308611
     3  C    0.308611
 Electronic spatial extent (au):  <R**2>=             84.1384
 Charge=              0.0000 electrons
 Dipole moment (field-independent basis, Debye):
    X=              1.6873    Y=              1.3163    Z=              0.0000  Tot=              2.1400
 Quadrupole moment (field-independent basis, Debye-Ang):
   XX=            -11.5600   YY=            -13.0635   ZZ=            -13.4915
   XY=             -2.4496   XZ=              0.0000   YZ=              0.0000
 Traceless Quadrupole moment (field-independent basis, Debye-Ang):
   XX=              1.1450   YY=             -0.3585   ZZ=             -0.7865
   XY=             -2.4496   XZ=              0.0000   YZ=              0.0000
 Octapole moment (field-independent basis, Debye-Ang**2):
  XXX=              1.0868  YYY=             -3.8959  ZZZ=              0.0000  XYY=              2.2664
  XXY=             -2.1978  XXZ=              0.0000  XZZ=              0.6691  YZZ=             -0.7702
  YYZ=              0.0000  XYZ=              0.0000
 Hexadecapole moment (field-independent basis, Debye-Ang**3):
 XXXX=            -17.5557 YYYY=            -59.6964 ZZZZ=            -17.8826 XXXY=             -1.0941
 XXXZ=              0.0000 YYYX=             -1.5256 YYYZ=              0.0000 ZZZX=              0.0000
 ZZZY=              0.0000 XXYY=            -11.3577 XXZZ=             -6.2306 YYZZ=            -13.1779
 XXYZ=              0.0000 YYXZ=              0.0000 ZZXY=              0.8534
 N-N= 4.019883116335D+01 E-N=-3.499157053808D+02  KE= 1.140997501530D+02
 Symmetry A'   KE= 1.074732867576D+02
 Symmetry A"   KE= 6.626463395432D+00
 No NMR shielding tensors so no spin-rotation constants.
 Leave Link  601 at Wed Apr 24 20:08:32 2013, MaxMem=    33554432 cpu:         0.1
 (Enter /mf/frisch/g09/l602.exe)
 FitSet:  NAtFit=     6 NAtPot=     6 NAtFrz=     0 MDM=    28 TotChg=   0.00000
 Merz-Kollman atomic radii used.

 **********************************************************************

            Electrostatic Properties Using The SCF Density

 **********************************************************************

       Atomic Center    1 is at  -0.050283 -0.757778  0.000000
       Atomic Center    2 is at   0.854814 -1.077778  0.000000
       Atomic Center    3 is at  -0.050283  0.672222  0.000000
       Atomic Center    4 is at  -1.077945  1.035556  0.000000
       Atomic Center    5 is at   0.463548  1.035556  0.889981
       Atomic Center    6 is at   0.463548  1.035556 -0.889981
     426 points will be used for fitting atomic charges
 Fitting point charges and point dipoles to eletrostatic potential
 The dipole moment will be constrained to the correct value
 Charges from ESP fit, RMS=   0.00052 RRMS=   0.02789:
 ESP charges         Point Dipoles (au):
               1          2          3          4
     1  O   -1.012553  -0.188014   0.088301   0.000000
     2  H    0.666420  -0.166012   0.071289   0.000000
     3  C    1.122571  -0.126326   0.183475   0.000000
     4  H   -0.276392  -0.280910   0.066430   0.000000
     5  H   -0.250023   0.117019   0.054551   0.191614
     6  H   -0.250023   0.117019   0.054551  -0.191614
       Tot   0.000000  -0.527223   0.518597   0.000000
 ESP charges with hydrogens summed into heavy atoms:
               1
     1  O   -0.346134
     3  C    0.346134
 Charge=   0.00000 Dipole=     3.0273    -0.0019     0.0000 Tot=     3.0273
 -----------------------------------------------------------------

              Electrostatic Properties (Atomic Units)

 -----------------------------------------------------------------
    Center     Electric         -------- Electric Field --------
               Potential          X             Y             Z
 -----------------------------------------------------------------
    1 Atom    -22.212822
    2 Atom     -0.992056
    3 Atom    -14.586733
    4 Atom     -1.096839
    5 Atom     -1.103084
    6 Atom     -1.103084
 -----------------------------------------------------------------
 Leave Link  602 at Wed Apr 24 20:08:32 2013, MaxMem=    33554432 cpu:         0.0
 (Enter /mf/frisch/g09/l9999.exe)

 Test job not archived.
 1\1\GINC-ALTUV\SP\RHF\3-21G\C1H4O1\FRISCH\24-Apr-2013\0\\#p rhf/3-21g 
 pop=(mk,atomdipole) test geom=modela\\Gaussian Test Job 200 (Part 3): 
 Methanol charges via electrostatic potential fit with dipole constrain
 t\\0,1\O\H,1,0.96\C,1,1.43,2,109.47122063\H,3,1.09,1,109.47122063,2,18
 0.,0\H,3,1.09,1,109.47122063,2,-60.,0\H,3,1.09,1,109.47122063,2,60.,0\
 \Version=ES64L-G09RevD.01\State=1-A'\HF=-114.396749\RMSD=8.389e-09\Dip
 ole=0.7095186,0.,0.453236\Quadrupole=-1.2870475,-0.584731,1.8717785,0.
 ,-1.0652141,0.\PG=CS [SG(C1H2O1),X(H2)]\\@


 AN OPTIMIST IS A GUY
 THAT HAS NEVER HAD
 MUCH EXPERIENCE
   (CERTAIN MAXIMS OF ARCHY  -- DON MARQUIS)
 Job cpu time:       0 days  0 hours  0 minutes  1.2 seconds.
 File lengths (MBytes):  RWF=      5 Int=      0 D2E=      0 Chk=      1 Scr=      1
 Normal termination of Gaussian 09 at Wed Apr 24 20:08:32 2013.
 Initial command:
 /mf/frisch/g09/l1.exe "/altuv/s0/scratch/Gau-34175.inp" -scrdir="/altuv/s0/scratch/"
 Default CPUs for threads: 0
 Entering Link 1 = /mf/frisch/g09/l1.exe PID=     34203.
  
 Copyright (c) 1988,1990,1992,1993,1995,1998,2003,2009,2013,
            Gaussian, Inc.  All Rights Reserved.
  
 This is part of the Gaussian(R) 09 program.  It is based on
 the Gaussian(R) 03 system (copyright 2003, Gaussian, Inc.),
 the Gaussian(R) 98 system (copyright 1998, Gaussian, Inc.),
 the Gaussian(R) 94 system (copyright 1995, Gaussian, Inc.),
 the Gaussian 92(TM) system (copyright 1992, Gaussian, Inc.),
 the Gaussian 90(TM) system (copyright 1990, Gaussian, Inc.),
 the Gaussian 88(TM) system (copyright 1988, Gaussian, Inc.),
 the Gaussian 86(TM) system (copyright 1986, Carnegie Mellon
 University), and the Gaussian 82(TM) system (copyright 1983,
 Carnegie Mellon University). Gaussian is a federally registered
 trademark of Gaussian, Inc.
  
 This software contains proprietary and confidential information,
 including trade secrets, belonging to Gaussian, Inc.
  
 This software is provided under written license and may be
 used, copied, transmitted, or stored only in accord with that
 written license.
  
 The following legend is applicable only to US Government
 contracts under FAR:
  
                    RESTRICTED RIGHTS LEGEND
  
 Use, reproduction and disclosure by the US Government is
 subject to restrictions as set forth in subparagraphs (a)
 and (c) of the Commercial Computer Software - Restricted
 Rights clause in FAR 52.227-19.
  
 Gaussian, Inc.
 340 Quinnipiac St., Bldg. 40, Wallingford CT 06492
  
  
 ---------------------------------------------------------------
 Warning -- This program may not be used in any manner that
 competes with the business of Gaussian, Inc. or will provide
 assistance to any competitor of Gaussian, Inc.  The licensee
 of this program is prohibited from giving any competitor of
 Gaussian, Inc. access to this program.  By using this program,
 the user acknowledges that Gaussian, Inc. is engaged in the
 business of creating and licensing software in the field of
 computational chemistry and represents and warrants to the
 licensee that it is not a competitor of Gaussian, Inc. and that
 it will not use this program in any manner prohibited above.
 ---------------------------------------------------------------
  

 Cite this work as:
 Gaussian 09, Revision D.01,
 M. J. Frisch, G. W. Trucks, H. B. Schlegel, G. E. Scuseria, 
 M. A. Robb, J. R. Cheeseman, G. Scalmani, V. Barone, B. Mennucci, 
 G. A. Petersson, H. Nakatsuji, M. Caricato, X. Li, H. P. Hratchian, 
 A. F. Izmaylov, J. Bloino, G. Zheng, J. L. Sonnenberg, M. Hada, 
 M. Ehara, K. Toyota, R. Fukuda, J. Hasegawa, M. Ishida, T. Nakajima, 
 Y. Honda, O. Kitao, H. Nakai, T. Vreven, J. A. Montgomery, Jr., 
 J. E. Peralta, F. Ogliaro, M. Bearpark, J. J. Heyd, E. Brothers, 
 K. N. Kudin, V. N. Staroverov, T. Keith, R. Kobayashi, J. Normand, 
 K. Raghavachari, A. Rendell, J. C. Burant, S. S. Iyengar, J. Tomasi, 
 M. Cossi, N. Rega, J. M. Millam, M. Klene, J. E. Knox, J. B. Cross, 
 V. Bakken, C. Adamo, J. Jaramillo, R. Gomperts, R. E. Stratmann, 
 O. Yazyev, A. J. Austin, R. Cammi, C. Pomelli, J. W. Ochterski, 
[...]
 NMagM=    0.0000000   2.7928460   0.0000000   2.7928460   2.7928460   2.7928460
 AtZNuc=   8.0000000   1.0000000   6.0000000   1.0000000   1.0000000   1.0000000
 Leave Link  101 at Wed Apr 24 20:08:37 2013, MaxMem=    33554432 cpu:         0.2
 (Enter /mf/frisch/g09/l202.exe)
                          Input orientation:                          
 ---------------------------------------------------------------------
 Center     Atomic      Atomic             Coordinates (Angstroms)
 Number     Number       Type             X           Y           Z
 ---------------------------------------------------------------------
      1          8           0        0.000000    0.000000    0.000000
      2          1           0        0.000000    0.000000    0.960000
      3          6           0        1.348217    0.000000   -0.476667
      4          1           0        1.348217    0.000000   -1.566667
      5          1           0        1.862048    0.889981   -0.113333
      6          1           0        1.862048   -0.889981   -0.113333
 ---------------------------------------------------------------------
                    Distance matrix (angstroms):
                    1          2          3          4          5
     1  O    0.000000
     2  H    0.960000   0.000000
     3  C    1.430000   1.970203   0.000000
     4  H    2.066914   2.863867   1.090000   0.000000
     5  H    2.066914   2.326227   1.090000   1.779963   0.000000
     6  H    2.066914   2.326227   1.090000   1.779963   1.779963
                    6
     6  H    0.000000
 Stoichiometry    CH4O
 Framework group  CS[SG(CH2O),X(H2)]
 Deg. of freedom     8
 Full point group                 CS      NOp   2
 Largest Abelian subgroup         CS      NOp   2
 Largest concise Abelian subgroup CS      NOp   2
                         Standard orientation:                         
 ---------------------------------------------------------------------
 Center     Atomic      Atomic             Coordinates (Angstroms)
 Number     Number       Type             X           Y           Z
 ---------------------------------------------------------------------
      1          8           0       -0.050283   -0.757778    0.000000
      2          1           0        0.854814   -1.077778    0.000000
      3          6           0       -0.050283    0.672222    0.000000
      4          1           0       -1.077945    1.035556    0.000000
      5          1           0        0.463548    1.035556    0.889981
      6          1           0        0.463548    1.035556   -0.889981
 ---------------------------------------------------------------------
 Rotational constants (GHZ):    128.2399015     24.6015268     23.7373947
 Leave Link  202 at Wed Apr 24 20:08:38 2013, MaxMem=    33554432 cpu:         0.0
 (Enter /mf/frisch/g09/l301.exe)
 Standard basis: 3-21G (6D, 7F)
 Ernie: Thresh=  0.10000D-02 Tol=  0.10000D-05 Strict=F.
 There are    20 symmetry adapted cartesian basis functions of A'  symmetry.
 There are     6 symmetry adapted cartesian basis functions of A"  symmetry.
 There are    20 symmetry adapted basis functions of A'  symmetry.
 There are     6 symmetry adapted basis functions of A"  symmetry.
    26 basis functions,    42 primitive gaussians,    26 cartesian basis functions
     9 alpha electrons        9 beta electrons
       nuclear repulsion energy        40.1988311633 Hartrees.
 IExCor=    0 DFT=F Ex=HF Corr=None ExCW=0 ScaHFX=  1.000000
 ScaDFX=  1.000000  1.000000  1.000000  1.000000 ScalE2=  1.000000  1.000000
 IRadAn=      0 IRanWt=     -1 IRanGd=            0 ICorTp=0 IEmpDi=  4
 NAtoms=    6 NActive=    6 NUniq=    5 SFac= 1.44D+00 NAtFMM=   60 NAOKFM=F Big=F
 Integral buffers will be    131072 words long.
 Raffenetti 1 integral format.
 Two-electron integral symmetry is turned on.
 Leave Link  301 at Wed Apr 24 20:08:38 2013, MaxMem=    33554432 cpu:         0.1
 (Enter /mf/frisch/g09/l302.exe)
 NPDir=0 NMtPBC=     1 NCelOv=     1 NCel=       1 NClECP=     1 NCelD=      1
         NCelK=      1 NCelE2=     1 NClLst=     1 CellRange=     0.0.
 One-electron integrals computed using PRISM.
 One-electron integral symmetry used in STVInt
 NBasis=    26 RedAO= T EigKep=  3.91D-02  NBF=    20     6
 NBsUse=    26 1.00D-06 EigRej= -1.00D+00 NBFU=    20     6
 Leave Link  302 at Wed Apr 24 20:08:38 2013, MaxMem=    33554432 cpu:         0.1
 (Enter /mf/frisch/g09/l303.exe)
 DipDrv:  MaxL=1.
 Leave Link  303 at Wed Apr 24 20:08:38 2013, MaxMem=    33554432 cpu:         0.0
 (Enter /mf/frisch/g09/l401.exe)
 ExpMin= 1.83D-01 ExpMax= 3.22D+02 ExpMxC= 3.22D+02 IAcc=1 IRadAn=         1 AccDes= 0.00D+00
 Harris functional with IExCor=  205 and IRadAn=       1 diagonalized for initial guess.
 HarFok:  IExCor=  205 AccDes= 0.00D+00 IRadAn=         1 IDoV= 1 UseB2=F ITyADJ=14
 ICtDFT=  3500011 ScaDFX=  1.000000  1.000000  1.000000  1.000000
 FoFCou: FMM=F IPFlag=           0 FMFlag=      100000 FMFlg1=           0
         NFxFlg=           0 DoJE=T BraDBF=F KetDBF=T FulRan=T
         wScrn=  0.000000 ICntrl=     500 IOpCl=  0 I1Cent=   200000004 NGrid=           0
         NMat0=    1 NMatS0=      1 NMatT0=    0 NMatD0=    1 NMtDS0=    0 NMtDT0=    0
 Petite list used in FoFCou.
 Harris En= -114.568817072228    
 JPrj=0 DoOrth=F DoCkMO=F.
 Initial guess orbital symmetries:
       Occupied  (A') (A') (A') (A') (A') (A") (A') (A') (A")
       Virtual   (A') (A') (A') (A") (A') (A') (A") (A') (A') (A')
                 (A") (A') (A") (A') (A') (A') (A')
 The electronic state of the initial guess is 1-A'.
 Leave Link  401 at Wed Apr 24 20:08:38 2013, MaxMem=    33554432 cpu:         0.1
 (Enter /mf/frisch/g09/l502.exe)
 Closed shell SCF:
 Using DIIS extrapolation, IDIIS=  1040.
 Integral symmetry usage will be decided dynamically.
 Keep R1 ints in memory in symmetry-blocked form, NReq=890336.
 IVT=       20986 IEndB=       20986 NGot=    33554432 MDV=    33498375
 LenX=    33498375 LenY=    33497258
 Requested convergence on RMS density matrix=1.00D-08 within 128 cycles.
 Requested convergence on MAX density matrix=1.00D-06.
 Requested convergence on             energy=1.00D-06.
 No special actions if energy rises.
 FoFCou: FMM=F IPFlag=           0 FMFlag=           0 FMFlg1=           0
         NFxFlg=           0 DoJE=F BraDBF=F KetDBF=F FulRan=T
         wScrn=  0.000000 ICntrl=     600 IOpCl=  0 I1Cent=           0 NGrid=           0
         NMat0=    1 NMatS0=    351 NMatT0=    0 NMatD0=    1 NMtDS0=    0 NMtDT0=    0
 Petite list used in FoFCou.

 Cycle   1  Pass 1  IDiag  1:
 E= -114.309036380068    
 DIIS: error= 5.76D-02 at cycle   1 NSaved=   1.
 NSaved= 1 IEnMin= 1 EnMin= -114.309036380068     IErMin= 1 ErrMin= 5.76D-02
 ErrMax= 5.76D-02  0.00D+00 EMaxC= 1.00D-01 BMatC= 1.32D-01 BMatP= 1.32D-01
 IDIUse=3 WtCom= 4.24D-01 WtEn= 5.76D-01
 Coeff-Com:  0.100D+01
 Coeff-En:   0.100D+01
 Coeff:      0.100D+01
 Gap=     0.681 Goal=   None    Shift=    0.000
 GapD=    0.681 DampG=2.000 DampE=0.500 DampFc=1.0000 IDamp=-1.
 RMSDP=1.18D-02 MaxDP=6.74D-02              OVMax= 8.45D-02

 Cycle   2  Pass 1  IDiag  1:
 E= -114.383966129652     Delta-E=       -0.074929749584 Rises=F Damp=F
 DIIS: error= 2.84D-02 at cycle   2 NSaved=   2.
 NSaved= 2 IEnMin= 2 EnMin= -114.383966129652     IErMin= 2 ErrMin= 2.84D-02
 ErrMax= 2.84D-02  0.00D+00 EMaxC= 1.00D-01 BMatC= 1.97D-02 BMatP= 1.32D-01
 IDIUse=3 WtCom= 7.16D-01 WtEn= 2.84D-01
 Coeff-Com:  0.237D+00 0.763D+00
 Coeff-En:   0.000D+00 0.100D+01
 Coeff:      0.170D+00 0.830D+00
 Gap=     0.713 Goal=   None    Shift=    0.000
 RMSDP=4.01D-03 MaxDP=2.49D-02 DE=-7.49D-02 OVMax= 2.22D-02

 Cycle   3  Pass 1  IDiag  1:
 E= -114.396116257297     Delta-E=       -0.012150127645 Rises=F Damp=F
 DIIS: error= 6.24D-03 at cycle   3 NSaved=   3.
 NSaved= 3 IEnMin= 3 EnMin= -114.396116257297     IErMin= 3 ErrMin= 6.24D-03
 ErrMax= 6.24D-03  0.00D+00 EMaxC= 1.00D-01 BMatC= 8.87D-04 BMatP= 1.97D-02
 IDIUse=3 WtCom= 9.38D-01 WtEn= 6.24D-02
 Coeff-Com: -0.151D-01 0.141D+00 0.875D+00
 Coeff-En:   0.000D+00 0.000D+00 0.100D+01
 Coeff:     -0.142D-01 0.132D+00 0.882D+00
 Gap=     0.693 Goal=   None    Shift=    0.000
 RMSDP=7.68D-04 MaxDP=5.74D-03 DE=-1.22D-02 OVMax= 6.26D-03

 Cycle   4  Pass 1  IDiag  1:
 E= -114.396717982642     Delta-E=       -0.000601725344 Rises=F Damp=F
 DIIS: error= 1.29D-03 at cycle   4 NSaved=   4.
 NSaved= 4 IEnMin= 4 EnMin= -114.396717982642     IErMin= 4 ErrMin= 1.29D-03
 ErrMax= 1.29D-03  0.00D+00 EMaxC= 1.00D-01 BMatC= 3.72D-05 BMatP= 8.87D-04
 IDIUse=3 WtCom= 9.87D-01 WtEn= 1.29D-02
 Coeff-Com: -0.767D-02 0.111D-01 0.221D+00 0.775D+00
 Coeff-En:   0.000D+00 0.000D+00 0.000D+00 0.100D+01
 Coeff:     -0.757D-02 0.110D-01 0.218D+00 0.778D+00
 Gap=     0.695 Goal=   None    Shift=    0.000
 RMSDP=1.72D-04 MaxDP=1.04D-03 DE=-6.02D-04 OVMax= 1.28D-03

 Cycle   5  Pass 1  IDiag  1:
 E= -114.396746931188     Delta-E=       -0.000028948547 Rises=F Damp=F
 DIIS: error= 2.35D-04 at cycle   5 NSaved=   5.
 NSaved= 5 IEnMin= 5 EnMin= -114.396746931188     IErMin= 5 ErrMin= 2.35D-04
 ErrMax= 2.35D-04  0.00D+00 EMaxC= 1.00D-01 BMatC= 1.20D-06 BMatP= 3.72D-05
 IDIUse=3 WtCom= 9.98D-01 WtEn= 2.35D-03
 Coeff-Com:  0.255D-02-0.144D-01-0.103D+00-0.135D+00 0.125D+01
 Coeff-En:   0.000D+00 0.000D+00 0.000D+00 0.000D+00 0.100D+01
 Coeff:      0.254D-02-0.144D-01-0.103D+00-0.135D+00 0.125D+01
 Gap=     0.695 Goal=   None    Shift=    0.000
 RMSDP=7.30D-05 MaxDP=3.57D-04 DE=-2.89D-05 OVMax= 5.04D-04

 Cycle   6  Pass 1  IDiag  1:
 E= -114.396748964007     Delta-E=       -0.000002032819 Rises=F Damp=F
 DIIS: error= 4.17D-05 at cycle   6 NSaved=   6.
 NSaved= 6 IEnMin= 6 EnMin= -114.396748964007     IErMin= 6 ErrMin= 4.17D-05
 ErrMax= 4.17D-05  0.00D+00 EMaxC= 1.00D-01 BMatC= 1.36D-08 BMatP= 1.20D-06
 IDIUse=1 WtCom= 1.00D+00 WtEn= 0.00D+00
 Coeff-Com: -0.633D-03 0.408D-02 0.283D-01 0.226D-01-0.368D+00 0.131D+01
 Coeff:     -0.633D-03 0.408D-02 0.283D-01 0.226D-01-0.368D+00 0.131D+01
 Gap=     0.695 Goal=   None    Shift=    0.000
 RMSDP=1.06D-05 MaxDP=5.86D-05 DE=-2.03D-06 OVMax= 6.26D-05

 Cycle   7  Pass 1  IDiag  1:
 E= -114.396748991047     Delta-E=       -0.000000027040 Rises=F Damp=F
 DIIS: error= 3.17D-06 at cycle   7 NSaved=   7.
 NSaved= 7 IEnMin= 7 EnMin= -114.396748991047     IErMin= 7 ErrMin= 3.17D-06
 ErrMax= 3.17D-06  0.00D+00 EMaxC= 1.00D-01 BMatC= 2.03D-10 BMatP= 1.36D-08
 IDIUse=1 WtCom= 1.00D+00 WtEn= 0.00D+00
 Coeff-Com:  0.135D-03-0.894D-03-0.631D-02-0.439D-02 0.845D-01-0.375D+00
 Coeff-Com:  0.130D+01
 Coeff:      0.135D-03-0.894D-03-0.631D-02-0.439D-02 0.845D-01-0.375D+00
 Coeff:      0.130D+01
 Gap=     0.695 Goal=   None    Shift=    0.000
 RMSDP=1.57D-06 MaxDP=8.59D-06 DE=-2.70D-08 OVMax= 1.21D-05

 Cycle   8  Pass 1  IDiag  1:
 E= -114.396748991572     Delta-E=       -0.000000000525 Rises=F Damp=F
 DIIS: error= 4.88D-07 at cycle   8 NSaved=   8.
 NSaved= 8 IEnMin= 8 EnMin= -114.396748991572     IErMin= 8 ErrMin= 4.88D-07
 ErrMax= 4.88D-07  0.00D+00 EMaxC= 1.00D-01 BMatC= 7.61D-12 BMatP= 2.03D-10
 IDIUse=1 WtCom= 1.00D+00 WtEn= 0.00D+00
 Coeff-Com: -0.201D-04 0.135D-03 0.964D-03 0.293D-03-0.126D-01 0.683D-01
 Coeff-Com: -0.356D+00 0.130D+01
 Coeff:     -0.201D-04 0.135D-03 0.964D-03 0.293D-03-0.126D-01 0.683D-01
 Coeff:     -0.356D+00 0.130D+01
 Gap=     0.695 Goal=   None    Shift=    0.000
 RMSDP=2.57D-07 MaxDP=1.07D-06 DE=-5.25D-10 OVMax= 2.52D-06

 Cycle   9  Pass 1  IDiag  1:
 E= -114.396748991590     Delta-E=       -0.000000000017 Rises=F Damp=F
 DIIS: error= 1.25D-07 at cycle   9 NSaved=   9.
 NSaved= 9 IEnMin= 9 EnMin= -114.396748991590     IErMin= 9 ErrMin= 1.25D-07
 ErrMax= 1.25D-07  0.00D+00 EMaxC= 1.00D-01 BMatC= 2.65D-13 BMatP= 7.61D-12
 IDIUse=1 WtCom= 1.00D+00 WtEn= 0.00D+00
 Coeff-Com:  0.531D-05-0.365D-04-0.260D-03-0.973D-05 0.331D-02-0.199D-01
 Coeff-Com:  0.122D+00-0.596D+00 0.149D+01
 Coeff:      0.531D-05-0.365D-04-0.260D-03-0.973D-05 0.331D-02-0.199D-01
 Coeff:      0.122D+00-0.596D+00 0.149D+01
 Gap=     0.695 Goal=   None    Shift=    0.000
 RMSDP=6.25D-08 MaxDP=5.39D-07 DE=-1.73D-11 OVMax= 7.11D-07

 Cycle  10  Pass 1  IDiag  1:
 E= -114.396748991590     Delta-E=       -0.000000000001 Rises=F Damp=F
 DIIS: error= 1.52D-08 at cycle  10 NSaved=  10.
 NSaved=10 IEnMin=10 EnMin= -114.396748991590     IErMin=10 ErrMin= 1.52D-08
 ErrMax= 1.52D-08  0.00D+00 EMaxC= 1.00D-01 BMatC= 7.13D-15 BMatP= 2.65D-13
 IDIUse=1 WtCom= 1.00D+00 WtEn= 0.00D+00
 Coeff-Com: -0.101D-05 0.694D-05 0.508D-04-0.115D-04-0.643D-03 0.431D-02
 Coeff-Com: -0.288D-01 0.155D+00-0.495D+00 0.136D+01
 Coeff:     -0.101D-05 0.694D-05 0.508D-04-0.115D-04-0.643D-03 0.431D-02
 Coeff:     -0.288D-01 0.155D+00-0.495D+00 0.136D+01
 Gap=     0.695 Goal=   None    Shift=    0.000
 RMSDP=8.39D-09 MaxDP=6.53D-08 DE=-8.81D-13 OVMax= 8.64D-08

 SCF Done:  E(RHF) =  -114.396748992     A.U. after   10 cycles
            NFock= 10  Conv=0.84D-08     -V/T= 2.0026
 KE= 1.140997501530D+02 PE=-3.499157053050D+02 EE= 8.122037499706D+01
 Leave Link  502 at Wed Apr 24 20:08:38 2013, MaxMem=    33554432 cpu:         0.1
 (Enter /mf/frisch/g09/l601.exe)
 Copying SCF densities to generalized density rwf, IOpCl= 0 IROHF=0.

 **********************************************************************

            Population analysis using the SCF density.

 **********************************************************************

 Orbital symmetries:
       Occupied  (A') (A') (A') (A') (A') (A") (A') (A') (A")
       Virtual   (A') (A') (A') (A") (A') (A') (A") (A') (A') (A')
                 (A") (A') (A') (A") (A') (A') (A')
 The electronic state is 1-A'.
 Alpha  occ. eigenvalues --  -20.43245 -11.21389  -1.33982  -0.92345  -0.66884
 Alpha  occ. eigenvalues --   -0.61671  -0.58285  -0.47795  -0.43163
 Alpha virt. eigenvalues --    0.26338   0.31625   0.34844   0.35134   0.42610
 Alpha virt. eigenvalues --    0.95292   0.96460   0.96971   1.24569   1.29781
 Alpha virt. eigenvalues --    1.31567   1.36267   1.87928   1.88085   1.98004
 Alpha virt. eigenvalues --    2.14734   3.34419
          Condensed to atoms (all electrons):
               1          2          3          4          5          6
     1  O    8.286163   0.269799   0.225875  -0.025768  -0.036490  -0.036490
     2  H    0.269799   0.407528  -0.050058   0.004422  -0.003083  -0.003083
     3  C    0.225875  -0.050058   5.001248   0.371574   0.355156   0.355156
     4  H   -0.025768   0.004422   0.371574   0.499730  -0.032717  -0.032717
     5  H   -0.036490  -0.003083   0.355156  -0.032717   0.582797  -0.041707
     6  H   -0.036490  -0.003083   0.355156  -0.032717  -0.041707   0.582797
 Mulliken charges:
               1
     1  O   -0.683087
     2  H    0.374476
     3  C   -0.258951
     4  H    0.215476
     5  H    0.176043
     6  H    0.176043
 Sum of Mulliken charges =   0.00000
 Mulliken charges with hydrogens summed into heavy atoms:
               1
     1  O   -0.308611
     3  C    0.308611
 Electronic spatial extent (au):  <R**2>=             84.1384
 Charge=              0.0000 electrons
 Dipole moment (field-independent basis, Debye):
    X=              1.6873    Y=              1.3163    Z=              0.0000  Tot=              2.1400
 Quadrupole moment (field-independent basis, Debye-Ang):
   XX=            -11.5600   YY=            -13.0635   ZZ=            -13.4915
   XY=             -2.4496   XZ=              0.0000   YZ=              0.0000
 Traceless Quadrupole moment (field-independent basis, Debye-Ang):
   XX=              1.1450   YY=             -0.3585   ZZ=             -0.7865
   XY=             -2.4496   XZ=              0.0000   YZ=              0.0000
 Octapole moment (field-independent basis, Debye-Ang**2):
  XXX=              1.0868  YYY=             -3.8959  ZZZ=              0.0000  XYY=              2.2664
  XXY=             -2.1978  XXZ=              0.0000  XZZ=              0.6691  YZZ=             -0.7702
  YYZ=              0.0000  XYZ=              0.0000
 Hexadecapole moment (field-independent basis, Debye-Ang**3):
 XXXX=            -17.5557 YYYY=            -59.6964 ZZZZ=            -17.8826 XXXY=             -1.0941
 XXXZ=              0.0000 YYYX=             -1.5256 YYYZ=              0.0000 ZZZX=              0.0000
 ZZZY=              0.0000 XXYY=            -11.3577 XXZZ=             -6.2306 YYZZ=            -13.1779
 XXYZ=              0.0000 YYXZ=              0.0000 ZZXY=              0.8534
 N-N= 4.019883116335D+01 E-N=-3.499157053808D+02  KE= 1.140997501530D+02
 Symmetry A'   KE= 1.074732867576D+02
 Symmetry A"   KE= 6.626463395432D+00
 No NMR shielding tensors so no spin-rotation constants.
 Leave Link  601 at Wed Apr 24 20:08:38 2013, MaxMem=    33554432 cpu:         0.1
 (Enter /mf/frisch/g09/l602.exe)
 FitSet:  NAtFit=     6 NAtPot=     6 NAtFrz=     0 MDM=    10 TotChg=   0.00000
 Breneman (CHELPG) radii used.
 Read replacement radii atom by atom:
 Rad(2) =   1.100000000000D+00
 Atom Element Radius
    1     8    1.70
    2     1    1.10
    3     6    1.50
    4     1    1.45
    5     1    1.45
    6     1    1.45
 Generate Potential Derived Charges using the Breneman model, NDens= 1.
 Grid spacing= 0.300 Box extension= 2.800
 NStep X,Y,Z=   27     27     26   Total possible points=       18954
 Number of Points to Fit=    6030

 **********************************************************************

            Electrostatic Properties Using The SCF Density

 **********************************************************************

       Atomic Center    1 is at  -0.050283 -0.757778  0.000000
       Atomic Center    2 is at   0.854814 -1.077778  0.000000
       Atomic Center    3 is at  -0.050283  0.672222  0.000000
       Atomic Center    4 is at  -1.077945  1.035556  0.000000
       Atomic Center    5 is at   0.463548  1.035556  0.889981
       Atomic Center    6 is at   0.463548  1.035556 -0.889981
    6030 points will be used for fitting atomic charges
 Fitting point charges to electrostatic potential
 Charges from ESP fit, RMS=   0.00227 RRMS=   0.11905:
 ESP charges:
               1
     1  O   -0.745957
     2  H    0.449455
     3  C    0.321881
     4  H    0.027279
     5  H   -0.026329
     6  H   -0.026329
 Sum of ESP charges =   0.00000
 ESP charges with hydrogens summed into heavy atoms:
               1
     1  O   -0.296503
     3  C    0.296503
 Charge=   0.00000 Dipole=     1.6893     1.3014     0.0000 Tot=     2.1325
 -----------------------------------------------------------------

              Electrostatic Properties (Atomic Units)

 -----------------------------------------------------------------
    Center     Electric         -------- Electric Field --------
               Potential          X             Y             Z
 -----------------------------------------------------------------
    1 Atom    -22.212822
    2 Atom     -0.992056
    3 Atom    -14.586733
    4 Atom     -1.096839
    5 Atom     -1.103084
    6 Atom     -1.103084
 -----------------------------------------------------------------
 Leave Link  602 at Wed Apr 24 20:08:39 2013, MaxMem=    33554432 cpu:         0.1
 (Enter /mf/frisch/g09/l9999.exe)

 Test job not archived.
 1\1\GINC-ALTUV\SP\RHF\3-21G\C1H4O1\FRISCH\24-Apr-2013\0\\#p rhf/3-21g 
 test geom=modela pop=(chelpg,readatrad)\\Gaussian Test Job 200 (Part 7
 ): Methanol charges via electrostatic potential fit with Brenneman gri
 d\\0,1\O\H,1,0.96\C,1,1.43,2,109.47122063\H,3,1.09,1,109.47122063,2,18
 0.,0\H,3,1.09,1,109.47122063,2,-60.,0\H,3,1.09,1,109.47122063,2,60.,0\
 \Version=ES64L-G09RevD.01\State=1-A'\HF=-114.396749\RMSD=8.389e-09\Dip
 ole=0.7095186,0.,0.453236\Quadrupole=-1.2870475,-0.584731,1.8717785,0.
 ,-1.0652141,0.\PG=CS [SG(C1H2O1),X(H2)]\\@


 ERROR IS A HARDY PLANT... IT FLOURISHETH IN EVERY SOIL.
            MARTIN FARQUHAR TUPPER
 Job cpu time:       0 days  0 hours  0 minutes  1.3 seconds.
 File lengths (MBytes):  RWF=      5 Int=      0 D2E=      0 Chk=      1 Scr=      1
 Normal termination of Gaussian 09 at Wed Apr 24 20:08:39 2013.
