 Entering Gaussian System, Link 0=g09
 Initial command:
 /mf/frisch/g09/l1.exe "/altuv/s0/scratch/Gau-41543.inp" -scrdir="/altuv/s0/scratch/"
 Default CPUs for threads: 0
 Entering Link 1 = /mf/frisch/g09/l1.exe PID=     41544.
  
 Copyright (c) 1988,1990,1992,1993,1995,1998,2003,2009,2013,
            Gaussian, Inc.  All Rights Reserved.
  
 This is part of the Gaussian(R) 09 program.  It is based on
 the Gaussian(R) 03 system (copyright 2003, Gaussian, Inc.),
 the Gaussian(R) 98 system (copyright 1998, Gaussian, Inc.),
 the Gaussian(R) 94 system (copyright 1995, Gaussian, Inc.),
 the Gaussian 92(TM) system (copyright 1992, Gaussian, Inc.),
 the Gaussian 90(TM) system (copyright 1990, Gaussian, Inc.),
 the Gaussian 88(TM) system (copyright 1988, Gaussian, Inc.),
 the Gaussian 86(TM) system (copyright 1986, Carnegie Mellon
 University), and the Gaussian 82(TM) system (copyright 1983,
 Carnegie Mellon University). Gaussian is a federally registered
 trademark of Gaussian, Inc.
  
 This software contains proprietary and confidential information,
 including trade secrets, belonging to Gaussian, Inc.
  
 This software is provided under written license and may be
 used, copied, transmitted, or stored only in accord with that
 written license.
  
 The following legend is applicable only to US Government
 contracts under FAR:
  
                    RESTRICTED RIGHTS LEGEND
  
 Use, reproduction and disclosure by the US Government is
 subject to restrictions as set forth in subparagraphs (a)
 and (c) of the Commercial Computer Software - Restricted
 Rights clause in FAR 52.227-19.
  
 Gaussian, Inc.
 340 Quinnipiac St., Bldg. 40, Wallingford CT 06492
  
  
 ---------------------------------------------------------------
 Warning -- This program may not be used in any manner that
 competes with the business of Gaussian, Inc. or will provide
 assistance to any competitor of Gaussian, Inc.  The licensee
 of this program is prohibited from giving any competitor of
 Gaussian, Inc. access to this program.  By using this program,
 the user acknowledges that Gaussian, Inc. is engaged in the
 business of creating and licensing software in the field of
 computational chemistry and represents and warrants to the
 licensee that it is not a competitor of Gaussian, Inc. and that
 it will not use this program in any manner prohibited above.
 ---------------------------------------------------------------
  

 Cite this work as:
 Gaussian 09, Revision D.01,
 M. J. Frisch, G. W. Trucks, H. B. Schlegel, G. E. Scuseria, 
 M. A. Robb, J. R. Cheeseman, G. Scalmani, V. Barone, B. Mennucci, 
 G. A. Petersson, H. Nakatsuji, M. Caricato, X. Li, H. P. Hratchian, 
 A. F. Izmaylov, J. Bloino, G. Zheng, J. L. Sonnenberg, M. Hada, 
 M. Ehara, K. Toyota, R. Fukuda, J. Hasegawa, M. Ishida, T. Nakajima, 
 Y. Honda, O. Kitao, H. Nakai, T. Vreven, J. A. Montgomery, Jr., 
 J. E. Peralta, F. Ogliaro, M. Bearpark, J. J. Heyd, E. Brothers, 
 K. N. Kudin, V. N. Staroverov, T. Keith, R. Kobayashi, J. Normand, 
 K. Raghavachari, A. Rendell, J. C. Burant, S. S. Iyengar, J. Tomasi, 
 M. Cossi, N. Rega, J. M. Millam, M. Klene, J. E. Knox, J. B. Cross, 
 V. Bakken, C. Adamo, J. Jaramillo, R. Gomperts, R. E. Stratmann, 
 O. Yazyev, A. J. Austin, R. Cammi, C. Pomelli, J. W. Ochterski, 
 R. L. Martin, K. Morokuma, V. G. Zakrzewski, G. A. Voth, 
 P. Salvador, J. J. Dannenberg, S. Dapprich, A. D. Daniels, 
 O. Farkas, J. B. Foresman, J. V. Ortiz, J. Cioslowski, 
 and D. J. Fox, Gaussian, Inc., Wallingford CT, 2013.
 
 ******************************************
 Gaussian 09:  ES64L-G09RevD.01 24-Apr-2013
                24-Apr-2013 
 ******************************************
 SetSPE:  set environment variable "MP_BIND" = "yes"
 SetSPE:  set environment variable "MP_BLIST" = "0"
 ---------------------------------------
 #p rhf/sto-3g test pop=(chelpg,readrad)
 ---------------------------------------
 1/38=1/1;
 2/12=2,17=6,18=5,40=1/2;
 3/6=3,11=1,16=1,25=1,30=1,116=1/1,2,3;
 4//1;
 5/5=2,38=5/2;
 6/7=2,8=2,9=2,10=2,15=8,20=103,28=1/1,2;
 99/5=1,9=1/99;
 Leave Link    1 at Wed Apr 24 20:31:18 2013, MaxMem=           0 cpu:         0.1
 (Enter /mf/frisch/g09/l101.exe)
 ---------------------------------------------------------------
 Gaussian Test Job 237: Test CHELPG potential with read-in radii
 ---------------------------------------------------------------
 Symbolic Z-matrix:
 Charge =  0 Multiplicity = 1
 O
 H                    1     0.956 
 H                    1     0.956    2     104.5 
 
 NAtoms=      3 NQM=        3 NQMF=       0 NMMI=      0 NMMIF=      0
                NMic=       0 NMicF=      0.
                    Isotopes and Nuclear Properties:
 (Nuclear quadrupole moments (NQMom) in fm**2, nuclear magnetic moments (NMagM)
  in nuclear magnetons)

  Atom         1           2           3
 IAtWgt=          16           1           1
 AtmWgt=  15.9949146   1.0078250   1.0078250
 NucSpn=           0           1           1
 AtZEff=   0.0000000   0.0000000   0.0000000
 NQMom=    0.0000000   0.0000000   0.0000000
 NMagM=    0.0000000   2.7928460   2.7928460
 AtZNuc=   8.0000000   1.0000000   1.0000000
 Leave Link  101 at Wed Apr 24 20:31:18 2013, MaxMem=    33554432 cpu:         0.1
 (Enter /mf/frisch/g09/l202.exe)
                          Input orientation:                          
 ---------------------------------------------------------------------
 Center     Atomic      Atomic             Coordinates (Angstroms)
 Number     Number       Type             X           Y           Z
 ---------------------------------------------------------------------
      1          8           0        0.000000    0.000000    0.000000
      2          1           0        0.000000    0.000000    0.956000
      3          1           0        0.925549    0.000000   -0.239363
 ---------------------------------------------------------------------
                    Distance matrix (angstroms):
                    1          2          3
     1  O    0.000000
     2  H    0.956000   0.000000
     3  H    0.956000   1.511798   0.000000
 Stoichiometry    H2O
 Framework group  C2V[C2(O),SGV(H2)]
 Deg. of freedom     2
 Full point group                 C2V     NOp   4
 Largest Abelian subgroup         C2V     NOp   4
 Largest concise Abelian subgroup C2      NOp   2
                         Standard orientation:                         
 ---------------------------------------------------------------------
 Center     Atomic      Atomic             Coordinates (Angstroms)
 Number     Number       Type             X           Y           Z
 ---------------------------------------------------------------------
      1          8           0        0.000000    0.000000    0.117056
      2          1           0        0.000000    0.755899   -0.468224
      3          1           0        0.000000   -0.755899   -0.468224
 ---------------------------------------------------------------------
 Rotational constants (GHZ):    824.1770348    438.8077088    286.3496476
 Leave Link  202 at Wed Apr 24 20:31:18 2013, MaxMem=    33554432 cpu:         0.0
 (Enter /mf/frisch/g09/l301.exe)
 Standard basis: STO-3G (5D, 7F)
 Ernie: Thresh=  0.10000D-02 Tol=  0.10000D-05 Strict=F.
 There are     4 symmetry adapted cartesian basis functions of A1  symmetry.
 There are     0 symmetry adapted cartesian basis functions of A2  symmetry.
 There are     1 symmetry adapted cartesian basis functions of B1  symmetry.
 There are     2 symmetry adapted cartesian basis functions of B2  symmetry.
 There are     4 symmetry adapted basis functions of A1  symmetry.
 There are     0 symmetry adapted basis functions of A2  symmetry.
 There are     1 symmetry adapted basis functions of B1  symmetry.
 There are     2 symmetry adapted basis functions of B2  symmetry.
     7 basis functions,    21 primitive gaussians,     7 cartesian basis functions
     5 alpha electrons        5 beta electrons
       nuclear repulsion energy         9.2065539016 Hartrees.
 IExCor=    0 DFT=F Ex=HF Corr=None ExCW=0 ScaHFX=  1.000000
 ScaDFX=  1.000000  1.000000  1.000000  1.000000 ScalE2=  1.000000  1.000000
 IRadAn=      0 IRanWt=     -1 IRanGd=            0 ICorTp=0 IEmpDi=  4
 NAtoms=    3 NActive=    3 NUniq=    2 SFac= 2.25D+00 NAtFMM=   60 NAOKFM=F Big=F
 Integral buffers will be    131072 words long.
 Raffenetti 1 integral format.
 Two-electron integral symmetry is turned on.
 Leave Link  301 at Wed Apr 24 20:31:18 2013, MaxMem=    33554432 cpu:         0.1
 (Enter /mf/frisch/g09/l302.exe)
 NPDir=0 NMtPBC=     1 NCelOv=     1 NCel=       1 NClECP=     1 NCelD=      1
         NCelK=      1 NCelE2=     1 NClLst=     1 CellRange=     0.0.
 One-electron integrals computed using PRISM.
 One-electron integral symmetry used in STVInt
 NBasis=     7 RedAO= T EigKep=  4.79D-01  NBF=     4     0     1     2
 NBsUse=     7 1.00D-06 EigRej= -1.00D+00 NBFU=     4     0     1     2
 Leave Link  302 at Wed Apr 24 20:31:19 2013, MaxMem=    33554432 cpu:         0.1
 (Enter /mf/frisch/g09/l303.exe)
 DipDrv:  MaxL=1.
 Leave Link  303 at Wed Apr 24 20:31:19 2013, MaxMem=    33554432 cpu:         0.0
 (Enter /mf/frisch/g09/l401.exe)
 ExpMin= 1.69D-01 ExpMax= 1.31D+02 ExpMxC= 1.31D+02 IAcc=1 IRadAn=         1 AccDes= 0.00D+00
 Harris functional with IExCor=  205 and IRadAn=       1 diagonalized for initial guess.
 HarFok:  IExCor=  205 AccDes= 0.00D+00 IRadAn=         1 IDoV= 1 UseB2=F ITyADJ=14
 ICtDFT=  3500011 ScaDFX=  1.000000  1.000000  1.000000  1.000000
 FoFCou: FMM=F IPFlag=           0 FMFlag=      100000 FMFlg1=           0
         NFxFlg=           0 DoJE=T BraDBF=F KetDBF=T FulRan=T
         wScrn=  0.000000 ICntrl=     500 IOpCl=  0 I1Cent=   200000004 NGrid=           0
         NMat0=    1 NMatS0=      1 NMatT0=    0 NMatD0=    1 NMtDS0=    0 NMtDT0=    0
 Petite list used in FoFCou.
 Harris En= -75.0355591704491    
 JPrj=0 DoOrth=F DoCkMO=F.
 Initial guess orbital symmetries:
       Occupied  (A1) (A1) (B2) (A1) (B1)
       Virtual   (A1) (B2)
 The electronic state of the initial guess is 1-A1.
 Leave Link  401 at Wed Apr 24 20:31:19 2013, MaxMem=    33554432 cpu:         0.1
 (Enter /mf/frisch/g09/l502.exe)
 Closed shell SCF:
 Using DIIS extrapolation, IDIIS=  1040.
 Integral symmetry usage will be decided dynamically.
 Keep R1 ints in memory in symmetry-blocked form, NReq=823030.
 IVT=       20173 IEndB=       20173 NGot=    33554432 MDV=    33533837
 LenX=    33533837 LenY=    33532955
 Requested convergence on RMS density matrix=1.00D-08 within 128 cycles.
 Requested convergence on MAX density matrix=1.00D-06.
 Requested convergence on             energy=1.00D-06.
 No special actions if energy rises.
 FoFCou: FMM=F IPFlag=           0 FMFlag=           0 FMFlg1=           0
         NFxFlg=           0 DoJE=F BraDBF=F KetDBF=F FulRan=T
         wScrn=  0.000000 ICntrl=     600 IOpCl=  0 I1Cent=           0 NGrid=           0
         NMat0=    1 NMatS0=     28 NMatT0=    0 NMatD0=    1 NMtDS0=    0 NMtDT0=    0
 Petite list used in FoFCou.

 Cycle   1  Pass 1  IDiag  1:
 E= -74.9097146150147    
 DIIS: error= 7.66D-02 at cycle   1 NSaved=   1.
 NSaved= 1 IEnMin= 1 EnMin= -74.9097146150147     IErMin= 1 ErrMin= 7.66D-02
 ErrMax= 7.66D-02  0.00D+00 EMaxC= 1.00D-01 BMatC= 3.95D-02 BMatP= 3.95D-02
 IDIUse=3 WtCom= 2.34D-01 WtEn= 7.66D-01
 Coeff-Com:  0.100D+01
 Coeff-En:   0.100D+01
 Coeff:      0.100D+01
 Gap=     0.898 Goal=   None    Shift=    0.000
 GapD=    0.898 DampG=2.000 DampE=0.500 DampFc=1.0000 IDamp=-1.
 RMSDP=4.07D-02 MaxDP=1.44D-01              OVMax= 0.00D+00

 Cycle   2  Pass 1  IDiag  1:
 E= -74.9623773901857     Delta-E=       -0.052662775171 Rises=F Damp=F
 DIIS: error= 6.12D-03 at cycle   2 NSaved=   2.
 NSaved= 2 IEnMin= 2 EnMin= -74.9623773901857     IErMin= 2 ErrMin= 6.12D-03
 ErrMax= 6.12D-03  0.00D+00 EMaxC= 1.00D-01 BMatC= 3.67D-04 BMatP= 3.95D-02
 IDIUse=3 WtCom= 9.39D-01 WtEn= 6.12D-02
 Coeff-Com:  0.558D-01 0.944D+00
 Coeff-En:   0.000D+00 0.100D+01
 Coeff:      0.524D-01 0.948D+00
 Gap=     0.998 Goal=   None    Shift=    0.000
 RMSDP=2.80D-03 MaxDP=1.01D-02 DE=-5.27D-02 OVMax= 0.00D+00

 Cycle   3  Pass 1  IDiag  1:
 E= -74.9627438005005     Delta-E=       -0.000366410315 Rises=F Damp=F
 DIIS: error= 1.10D-03 at cycle   3 NSaved=   3.
 NSaved= 3 IEnMin= 3 EnMin= -74.9627438005005     IErMin= 3 ErrMin= 1.10D-03
 ErrMax= 1.10D-03  0.00D+00 EMaxC= 1.00D-01 BMatC= 7.73D-06 BMatP= 3.67D-04
 IDIUse=3 WtCom= 9.89D-01 WtEn= 1.10D-02
 Coeff-Com: -0.105D-01-0.156D+00 0.117D+01
 Coeff-En:   0.000D+00 0.000D+00 0.100D+01
 Coeff:     -0.104D-01-0.155D+00 0.116D+01
 Gap=     0.998 Goal=   None    Shift=    0.000
 RMSDP=7.93D-04 MaxDP=3.43D-03 DE=-3.66D-04 OVMax= 0.00D+00

 Cycle   4  Pass 1  IDiag  1:
 E= -74.9627565588817     Delta-E=       -0.000012758381 Rises=F Damp=F
 DIIS: error= 1.62D-04 at cycle   4 NSaved=   4.
 NSaved= 4 IEnMin= 4 EnMin= -74.9627565588817     IErMin= 4 ErrMin= 1.62D-04
 ErrMax= 1.62D-04  0.00D+00 EMaxC= 1.00D-01 BMatC= 2.06D-07 BMatP= 7.73D-06
 IDIUse=3 WtCom= 9.98D-01 WtEn= 1.62D-03
 Coeff-Com:  0.135D-02 0.107D-01-0.221D+00 0.121D+01
 Coeff-En:   0.000D+00 0.000D+00 0.000D+00 0.100D+01
 Coeff:      0.135D-02 0.107D-01-0.221D+00 0.121D+01
 Gap=     0.998 Goal=   None    Shift=    0.000
 RMSDP=1.72D-04 MaxDP=7.05D-04 DE=-1.28D-05 OVMax= 0.00D+00

 Cycle   5  Pass 1  IDiag  1:
 E= -74.9627570133172     Delta-E=       -0.000000454435 Rises=F Damp=F
 DIIS: error= 3.27D-05 at cycle   5 NSaved=   5.
 NSaved= 5 IEnMin= 5 EnMin= -74.9627570133172     IErMin= 5 ErrMin= 3.27D-05
 ErrMax= 3.27D-05  0.00D+00 EMaxC= 1.00D-01 BMatC= 8.97D-09 BMatP= 2.06D-07
 IDIUse=1 WtCom= 1.00D+00 WtEn= 0.00D+00
 Coeff-Com: -0.663D-03-0.477D-02 0.131D+00-0.823D+00 0.170D+01
 Coeff:     -0.663D-03-0.477D-02 0.131D+00-0.823D+00 0.170D+01
 Gap=     0.998 Goal=   None    Shift=    0.000
 RMSDP=4.86D-05 MaxDP=1.49D-04 DE=-4.54D-07 OVMax= 0.00D+00

 Cycle   6  Pass 1  IDiag  1:
 E= -74.9627570407770     Delta-E=       -0.000000027460 Rises=F Damp=F
 DIIS: error= 2.14D-07 at cycle   6 NSaved=   6.
 NSaved= 6 IEnMin= 6 EnMin= -74.9627570407770     IErMin= 6 ErrMin= 2.14D-07
 ErrMax= 2.14D-07  0.00D+00 EMaxC= 1.00D-01 BMatC= 3.87D-13 BMatP= 8.97D-09
 IDIUse=1 WtCom= 1.00D+00 WtEn= 0.00D+00
 Coeff-Com: -0.349D-07-0.153D-04 0.445D-03-0.313D-02 0.117D-01 0.991D+00
 Coeff:     -0.349D-07-0.153D-04 0.445D-03-0.313D-02 0.117D-01 0.991D+00
 Gap=     0.998 Goal=   None    Shift=    0.000
 RMSDP=2.54D-07 MaxDP=9.08D-07 DE=-2.75D-08 OVMax= 0.00D+00

 Cycle   7  Pass 1  IDiag  1:
 E= -74.9627570407779     Delta-E=       -0.000000000001 Rises=F Damp=F
 DIIS: error= 2.01D-10 at cycle   7 NSaved=   7.
 NSaved= 7 IEnMin= 7 EnMin= -74.9627570407779     IErMin= 7 ErrMin= 2.01D-10
 ErrMax= 2.01D-10  0.00D+00 EMaxC= 1.00D-01 BMatC= 2.71D-19 BMatP= 3.87D-13
 IDIUse=1 WtCom= 1.00D+00 WtEn= 0.00D+00
 Coeff-Com:  0.569D-10 0.781D-08 0.441D-06-0.474D-05 0.159D-04 0.138D-02
 Coeff-Com:  0.999D+00
 Coeff:      0.569D-10 0.781D-08 0.441D-06-0.474D-05 0.159D-04 0.138D-02
 Coeff:      0.999D+00
 Gap=     0.998 Goal=   None    Shift=    0.000
 RMSDP=2.11D-10 MaxDP=6.86D-10 DE=-9.09D-13 OVMax= 0.00D+00

 SCF Done:  E(RHF) =  -74.9627570408     A.U. after    7 cycles
            NFock=  7  Conv=0.21D-09     -V/T= 2.0050
 KE= 7.459176144596D+01 PE=-1.969828928094D+02 EE= 3.822182042103D+01
 Leave Link  502 at Wed Apr 24 20:31:19 2013, MaxMem=    33554432 cpu:         0.1
 (Enter /mf/frisch/g09/l601.exe)
 Copying SCF densities to generalized density rwf, IOpCl= 0 IROHF=0.

 **********************************************************************

            Population analysis using the SCF density.

 **********************************************************************

 Orbital symmetries:
       Occupied  (A1) (A1) (B2) (A1) (B1)
       Virtual   (A1) (B2)
 The electronic state is 1-A1.
 Alpha  occ. eigenvalues --  -20.24163  -1.26905  -0.61854  -0.45319  -0.39134
 Alpha virt. eigenvalues --    0.60691   0.74377
          Condensed to atoms (all electrons):
               1          2          3
     1  O    7.838789   0.264335   0.264335
     2  H    0.264335   0.600301  -0.048364
     3  H    0.264335  -0.048364   0.600301
 Mulliken charges:
               1
     1  O   -0.367458
     2  H    0.183729
     3  H    0.183729
 Sum of Mulliken charges =   0.00000
 Mulliken charges with hydrogens summed into heavy atoms:
               1
     1  O    0.000000
 Electronic spatial extent (au):  <R**2>=             17.8187
 Charge=              0.0000 electrons
 Dipole moment (field-independent basis, Debye):
    X=              0.0000    Y=              0.0000    Z=             -1.7275  Tot=              1.7275
 Quadrupole moment (field-independent basis, Debye-Ang):
   XX=             -6.0933   YY=             -4.3587   ZZ=             -5.3933
   XY=              0.0000   XZ=              0.0000   YZ=              0.0000
 Traceless Quadrupole moment (field-independent basis, Debye-Ang):
   XX=             -0.8115   YY=              0.9230   ZZ=             -0.1115
   XY=              0.0000   XZ=              0.0000   YZ=              0.0000
 Octapole moment (field-independent basis, Debye-Ang**2):
  XXX=              0.0000  YYY=              0.0000  ZZZ=             -0.2031  XYY=              0.0000
  XXY=              0.0000  XXZ=             -0.0039  XZZ=              0.0000  YZZ=              0.0000
  YYZ=             -0.5494  XYZ=              0.0000
 Hexadecapole moment (field-independent basis, Debye-Ang**3):
 XXXX=             -3.2297 YYYY=             -6.4842 ZZZZ=             -4.8657 XXXY=              0.0000
 XXXZ=              0.0000 YYYX=              0.0000 YYYZ=              0.0000 ZZZX=              0.0000
 ZZZY=              0.0000 XXYY=             -1.7704 XXZZ=             -1.3841 YYZZ=             -1.6823
 XXYZ=              0.0000 YYXZ=              0.0000 ZZXY=              0.0000
 N-N= 9.206553901644D+00 E-N=-1.969828928066D+02  KE= 7.459176144596D+01
 Symmetry A1   KE= 6.659200493948D+01
 Symmetry A2   KE= 0.000000000000D+00
 Symmetry B1   KE= 5.057462452019D+00
 Symmetry B2   KE= 2.942294054458D+00
 No NMR shielding tensors so no spin-rotation constants.
 Leave Link  601 at Wed Apr 24 20:31:19 2013, MaxMem=    33554432 cpu:         0.1
 (Enter /mf/frisch/g09/l602.exe)
 FitSet:  NAtFit=     3 NAtPot=     3 NAtFrz=     0 MDM=     7 TotChg=   0.00000
 Breneman (CHELPG) radii used.
 Read replacement radii for each type of atom:
 Rad(6) =   1.500000000000D+00
 Rad(8) =   1.700000000000D+00
 Rad(7) =   1.700000000000D+00
 Rad(1) =   1.450000000000D+00
 Atom Element Radius
    1     8    1.70
    2     1    1.45
    3     1    1.45
 Generate Potential Derived Charges using the Breneman model, NDens= 1.
 Grid spacing= 0.300 Box extension= 2.800
 NStep X,Y,Z=   20     25     22   Total possible points=       11000
 Number of Points to Fit=    3992

 **********************************************************************

            Electrostatic Properties Using The SCF Density

 **********************************************************************

       Atomic Center    1 is at   0.000000  0.000000  0.117056
       Atomic Center    2 is at   0.000000  0.755899 -0.468224
       Atomic Center    3 is at   0.000000 -0.755899 -0.468224
    3992 points will be used for fitting atomic charges
 Fitting point charges to electrostatic potential
 Charges from ESP fit, RMS=   0.00083 RRMS=   0.04704:
 ESP charges:
               1
     1  O   -0.618523
     2  H    0.309261
     3  H    0.309261
 Sum of ESP charges =   0.00000
 ESP charges with hydrogens summed into heavy atoms:
               1
     1  O    0.000000
 Charge=   0.00000 Dipole=     0.0000     0.0000    -1.7388 Tot=     1.7388
 -----------------------------------------------------------------

              Electrostatic Properties (Atomic Units)

 -----------------------------------------------------------------
    Center     Electric         -------- Electric Field --------
               Potential          X             Y             Z
 -----------------------------------------------------------------
    1 Atom    -22.056724
    2 Atom     -1.057996
    3 Atom     -1.057996
 -----------------------------------------------------------------
 Leave Link  602 at Wed Apr 24 20:31:19 2013, MaxMem=    33554432 cpu:         0.1
 (Enter /mf/frisch/g09/l9999.exe)

 Test job not archived.
 1\1\GINC-ALTUV\SP\RHF\STO-3G\H2O1\FRISCH\24-Apr-2013\0\\#p rhf/sto-3g 
 test pop=(chelpg,readrad)\\Gaussian Test Job 237: Test CHELPG potentia
 l with read-in radii\\0,1\O\H,1,0.956\H,1,0.956,2,104.5\\Version=ES64L
 -G09RevD.01\State=1-A1\HF=-74.962757\RMSD=2.106e-10\Dipole=0.5373921,0
 .,0.4160934\Quadrupole=0.2053782,-0.6033426,0.3979644,0.,-0.3723377,0.
 \PG=C02V [C2(O1),SGV(H2)]\\@


 HEAVEN'S NET CASTS WIDE.
 THOUGH ITS MESHES ARE COARSE, NOTHING SLIPS THROUGH.

                                          -- LAO-TSU
 Job cpu time:       0 days  0 hours  0 minutes  1.1 seconds.
 File lengths (MBytes):  RWF=      5 Int=      0 D2E=      0 Chk=      1 Scr=      1
 Normal termination of Gaussian 09 at Wed Apr 24 20:31:19 2013.
