 Entering Gaussian System, Link 0=g16
 Initial command:
 /home/eric/data/opt/apps/gaussian/g16A.03/g16/l1.exe "/tmp/Gau-3987539.inp" -scrdir="/tmp/"
 Entering Link 1 = /home/eric/data/opt/apps/gaussian/g16A.03/g16/l1.exe PID=   3987540.
  
 Copyright (c) 1988,1990,1992,1993,1995,1998,2003,2009,2016,
            Gaussian, Inc.  All Rights Reserved.
  
 This is part of the Gaussian(R) 16 program.  It is based on
 the Gaussian(R) 09 system (copyright 2009, Gaussian, Inc.),
 the Gaussian(R) 03 system (copyright 2003, Gaussian, Inc.),
 the Gaussian(R) 98 system (copyright 1998, Gaussian, Inc.),
 the Gaussian(R) 94 system (copyright 1995, Gaussian, Inc.),
 the Gaussian 92(TM) system (copyright 1992, Gaussian, Inc.),
 the Gaussian 90(TM) system (copyright 1990, Gaussian, Inc.),
 the Gaussian 88(TM) system (copyright 1988, Gaussian, Inc.),
 the Gaussian 86(TM) system (copyright 1986, Carnegie Mellon
 University), and the Gaussian 82(TM) system (copyright 1983,
 Carnegie Mellon University). Gaussian is a federally registered
 trademark of Gaussian, Inc.
  
 This software contains proprietary and confidential information,
 including trade secrets, belonging to Gaussian, Inc.
  
 This software is provided under written license and may be
 used, copied, transmitted, or stored only in accord with that
 written license.
  
 The following legend is applicable only to US Government
 contracts under FAR:
  
                    RESTRICTED RIGHTS LEGEND
  
 Use, reproduction and disclosure by the US Government is
 subject to restrictions as set forth in subparagraphs (a)
 and (c) of the Commercial Computer Software - Restricted
 Rights clause in FAR 52.227-19.
  
 Gaussian, Inc.
 340 Quinnipiac St., Bldg. 40, Wallingford CT 06492
  
  
 ---------------------------------------------------------------
 Warning -- This program may not be used in any manner that
 competes with the business of Gaussian, Inc. or will provide
 assistance to any competitor of Gaussian, Inc.  The licensee
 of this program is prohibited from giving any competitor of
 Gaussian, Inc. access to this program.  By using this program,
 the user acknowledges that Gaussian, Inc. is engaged in the
 business of creating and licensing software in the field of
 computational chemistry and represents and warrants to the
 licensee that it is not a competitor of Gaussian, Inc. and that
 it will not use this program in any manner prohibited above.
 ---------------------------------------------------------------
  

 Cite this work as:
 Gaussian 16, Revision A.03,
 M. J. Frisch, G. W. Trucks, H. B. Schlegel, G. E. Scuseria, 
 M. A. Robb, J. R. Cheeseman, G. Scalmani, V. Barone, 
 G. A. Petersson, H. Nakatsuji, X. Li, M. Caricato, A. V. Marenich, 
 J. Bloino, B. G. Janesko, R. Gomperts, B. Mennucci, H. P. Hratchian, 
 J. V. Ortiz, A. F. Izmaylov, J. L. Sonnenberg, D. Williams-Young, 
 F. Ding, F. Lipparini, F. Egidi, J. Goings, B. Peng, A. Petrone, 
 T. Henderson, D. Ranasinghe, V. G. Zakrzewski, J. Gao, N. Rega, 
 G. Zheng, W. Liang, M. Hada, M. Ehara, K. Toyota, R. Fukuda, 
 J. Hasegawa, M. Ishida, T. Nakajima, Y. Honda, O. Kitao, H. Nakai, 
 T. Vreven, K. Throssell, J. A. Montgomery, Jr., J. E. Peralta, 
 F. Ogliaro, M. J. Bearpark, J. J. Heyd, E. N. Brothers, K. N. Kudin, 
 V. N. Staroverov, T. A. Keith, R. Kobayashi, J. Normand, 
 K. Raghavachari, A. P. Rendell, J. C. Burant, S. S. Iyengar, 
 J. Tomasi, M. Cossi, J. M. Millam, M. Klene, C. Adamo, R. Cammi, 
 J. W. Ochterski, R. L. Martin, K. Morokuma, O. Farkas, 
 J. B. Foresman, and D. J. Fox, Gaussian, Inc., Wallingford CT, 2016.
 
 ******************************************
 Gaussian 16:  ES64L-G16RevA.03 25-Dec-2016
                 7-Apr-2024 
 ******************************************
 %chk=dvb_sp_unconverged.chk
 -------------------------------
 #p b3lyp/sto-3g scf(maxcycle=4)
 -------------------------------
 1/38=1,172=1/1;
 2/12=2,17=6,18=5,40=1/2;
 3/6=3,11=2,25=1,30=1,74=-5/1,2,3;
 4//1;
 5/5=2,7=4,38=5/2;
 6/7=2,8=2,9=2,10=2,28=1/1;
 99/5=1,9=1/99;
 Leave Link    1 at Sun Apr  7 14:48:30 2024, MaxMem=           0 cpu:               0.0 elap:               0.0
 (Enter /home/eric/data/opt/apps/gaussian/g16A.03/g16/l101.exe)
 -------------------------------------
 dvb scf not allowed to converge fully
 -------------------------------------
 Symbolic Z-matrix:
 Charge =  0 Multiplicity = 1
 C                     0.26945   1.41012   0. 
 C                    -1.06479   0.92066   0. 
 C                    -1.32539  -0.45706   0. 
 C                    -0.26945  -1.41012   0. 
 C                     1.06479  -0.92066   0. 
 H                    -1.90447   1.62752   0. 
 H                    -2.36476  -0.81304   0. 
 H                     1.90447  -1.62752   0. 
 C                    -0.60369  -2.86996   0. 
 C                     0.26945  -3.89207   0. 
 H                     1.35518  -3.74231   0. 
 H                    -1.68186  -3.09015   0. 
 H                    -0.07425  -4.93303   0. 
 C                     0.60369   2.86996   0. 
 H                     1.68186   3.09015   0. 
 C                    -0.26945   3.89207   0. 
 H                    -1.35518   3.74231   0. 
 H                     0.07425   4.93303   0. 
 C                     1.32539   0.45706   0. 
 H                     2.36476   0.81304   0. 
 
 ITRead=  0  0  0  0  0  0  0  0  0  0  0  0  0  0  0  0  0  0  0  0
 MicOpt= -1 -1 -1 -1 -1 -1 -1 -1 -1 -1 -1 -1 -1 -1 -1 -1 -1 -1 -1 -1
 NAtoms=     20 NQM=       20 NQMF=       0 NMMI=      0 NMMIF=      0
                NMic=       0 NMicF=      0.
                    Isotopes and Nuclear Properties:
 (Nuclear quadrupole moments (NQMom) in fm**2, nuclear magnetic moments (NMagM)
  in nuclear magnetons)

  Atom         1           2           3           4           5           6           7           8           9          10
 IAtWgt=          12          12          12          12          12           1           1           1          12          12
 AtmWgt=  12.0000000  12.0000000  12.0000000  12.0000000  12.0000000   1.0078250   1.0078250   1.0078250  12.0000000  12.0000000
 NucSpn=           0           0           0           0           0           1           1           1           0           0
 AtZEff=  -0.0000000  -0.0000000  -0.0000000  -0.0000000  -0.0000000  -0.0000000  -0.0000000  -0.0000000  -0.0000000  -0.0000000
 NQMom=    0.0000000   0.0000000   0.0000000   0.0000000   0.0000000   0.0000000   0.0000000   0.0000000   0.0000000   0.0000000
 NMagM=    0.0000000   0.0000000   0.0000000   0.0000000   0.0000000   2.7928460   2.7928460   2.7928460   0.0000000   0.0000000
 AtZNuc=   6.0000000   6.0000000   6.0000000   6.0000000   6.0000000   1.0000000   1.0000000   1.0000000   6.0000000   6.0000000

  Atom        11          12          13          14          15          16          17          18          19          20
 IAtWgt=           1           1           1          12           1          12           1           1          12           1
 AtmWgt=   1.0078250   1.0078250   1.0078250  12.0000000   1.0078250  12.0000000   1.0078250   1.0078250  12.0000000   1.0078250
 NucSpn=           1           1           1           0           1           0           1           1           0           1
 AtZEff=  -0.0000000  -0.0000000  -0.0000000  -0.0000000  -0.0000000  -0.0000000  -0.0000000  -0.0000000  -0.0000000  -0.0000000
 NQMom=    0.0000000   0.0000000   0.0000000   0.0000000   0.0000000   0.0000000   0.0000000   0.0000000   0.0000000   0.0000000
 NMagM=    2.7928460   2.7928460   2.7928460   0.0000000   2.7928460   0.0000000   2.7928460   2.7928460   0.0000000   2.7928460
 AtZNuc=   1.0000000   1.0000000   1.0000000   6.0000000   1.0000000   6.0000000   1.0000000   1.0000000   6.0000000   1.0000000
 Leave Link  101 at Sun Apr  7 14:48:30 2024, MaxMem=   104857600 cpu:               0.1 elap:               0.1
 (Enter /home/eric/data/opt/apps/gaussian/g16A.03/g16/l202.exe)
                          Input orientation:                          
 ---------------------------------------------------------------------
 Center     Atomic      Atomic             Coordinates (Angstroms)
 Number     Number       Type             X           Y           Z
 ---------------------------------------------------------------------
      1          6           0        0.269445    1.410118    0.000000
      2          6           0       -1.064785    0.920662    0.000000
      3          6           0       -1.325389   -0.457058    0.000000
      4          6           0       -0.269445   -1.410118    0.000000
      5          6           0        1.064785   -0.920662    0.000000
      6          1           0       -1.904470    1.627522    0.000000
      7          1           0       -2.364759   -0.813041    0.000000
      8          1           0        1.904470   -1.627522    0.000000
      9          6           0       -0.603688   -2.869960    0.000000
     10          6           0        0.269445   -3.892070    0.000000
     11          1           0        1.355175   -3.742314    0.000000
     12          1           0       -1.681859   -3.090152    0.000000
     13          1           0       -0.074247   -4.933029    0.000000
     14          6           0        0.603688    2.869960    0.000000
     15          1           0        1.681859    3.090152    0.000000
     16          6           0       -0.269445    3.892070    0.000000
     17          1           0       -1.355175    3.742314    0.000000
     18          1           0        0.074247    4.933029    0.000000
     19          6           0        1.325389    0.457058    0.000000
     20          1           0        2.364759    0.813041    0.000000
 ---------------------------------------------------------------------
                    Distance matrix (angstroms):
                    1          2          3          4          5
     1  C    0.000000
     2  C    1.421174   0.000000
     3  C    2.455574   1.402151   0.000000
     4  C    2.871260   2.462743   1.422442   0.000000
     5  C    2.462743   2.815234   2.434720   1.421174   0.000000
     6  H    2.184759   1.097598   2.163518   3.449719   3.912763
     7  H    3.446950   2.166947   1.098642   2.178725   3.431232
     8  H    3.449719   3.912763   3.435400   2.184759   1.097598
     9  C    4.368229   3.818563   2.518521   1.497617   2.565846
    10  C    5.302188   4.994253   3.787189   2.539781   3.076009
    11  H    5.265583   5.253528   4.240086   2.842275   2.836555
    12  H    4.905101   4.058006   2.657114   2.194864   3.500106
    13  H    6.352451   5.936907   4.647545   3.528315   4.170909
    14  C    1.497617   2.565846   3.845827   4.368229   3.818563
    15  H    2.194864   3.500106   4.650402   4.905101   4.058006
    16  C    2.539781   3.076009   4.475481   5.302188   4.994253
    17  H    2.842275   2.836555   4.199478   5.265583   5.253528
    18  H    3.528315   4.170909   5.568844   6.352451   5.936907
    19  C    1.422442   2.434720   2.803967   2.455574   1.402151
    20  H    2.178725   3.431232   3.902607   3.446950   2.166947
                    6          7          8          9         10
     6  H    0.000000
     7  H    2.483589   0.000000
     8  H    5.010323   4.346228   0.000000
     9  C    4.681814   2.707820   2.799019   0.000000
    10  C    5.932268   4.052092   2.793114   1.344273   0.000000
    11  H    6.281753   4.734823   2.184965   2.144329   1.096009
    12  H    4.722923   2.377307   3.873118   1.100426   2.109659
    13  H    6.811061   4.713889   3.852492   2.129921   1.096230
    14  C    2.799019   4.730346   4.681814   5.865530   6.770286
    15  H    3.873118   5.622280   4.722923   6.383311   7.123646
    16  C    2.793114   5.150574   5.932268   6.770286   7.802771
    17  H    2.184965   4.665889   6.281753   6.654840   7.805332
    18  H    3.852492   6.242281   6.811061   7.832384   8.827257
    19  C    3.435400   3.902607   2.163518   3.845827   4.475481
    20  H    4.346228   5.001248   2.483589   4.730346   5.150574
                   11         12         13         14         15
    11  H    0.000000
    12  H    3.106266   0.000000
    13  H    1.860390   2.445529   0.000000
    14  C    6.654840   6.383311   7.832384   0.000000
    15  H    6.840271   7.036388   8.213120   1.100426   0.000000
    16  C    7.805332   7.123646   8.827257   1.344273   2.109659
    17  H    7.960255   6.840271   8.769399   2.144329   3.106266
    18  H    8.769399   8.213120   9.867175   2.129921   2.445529
    19  C    4.199478   4.650402   5.568844   2.518521   2.657114
    20  H    4.665889   5.622280   6.242281   2.707820   2.377307
                   16         17         18         19         20
    16  C    0.000000
    17  H    1.096009   0.000000
    18  H    1.096230   1.860390   0.000000
    19  C    3.787189   4.240086   4.647545   0.000000
    20  H    4.052092   4.734823   4.713889   1.098642   0.000000
 Stoichiometry    C10H10
 Framework group  C2H[SGH(C10H10)]
 Deg. of freedom    19
 Full point group                 C2H     NOp   4
 Largest Abelian subgroup         C2H     NOp   4
 Largest concise Abelian subgroup C2      NOp   2
                         Standard orientation:                         
 ---------------------------------------------------------------------
 Center     Atomic      Atomic             Coordinates (Angstroms)
 Number     Number       Type             X           Y           Z
 ---------------------------------------------------------------------
      1          6           0        0.269445   -1.410118   -0.000000
      2          6           0       -1.064785   -0.920662   -0.000000
      3          6           0       -1.325389    0.457058    0.000000
      4          6           0       -0.269445    1.410118   -0.000000
      5          6           0        1.064785    0.920662   -0.000000
      6          1           0       -1.904470   -1.627522   -0.000000
      7          1           0       -2.364759    0.813041    0.000000
      8          1           0        1.904470    1.627522   -0.000000
      9          6           0       -0.603688    2.869960    0.000000
     10          6           0        0.269445    3.892070    0.000000
     11          1           0        1.355175    3.742314    0.000000
     12          1           0       -1.681859    3.090152    0.000000
     13          1           0       -0.074247    4.933029    0.000000
     14          6           0        0.603688   -2.869960    0.000000
     15          1           0        1.681859   -3.090152    0.000000
     16          6           0       -0.269445   -3.892070    0.000000
     17          1           0       -1.355175   -3.742314    0.000000
     18          1           0        0.074247   -4.933029    0.000000
     19          6           0        1.325389   -0.457058    0.000000
     20          1           0        2.364759   -0.813041    0.000000
 ---------------------------------------------------------------------
 Rotational constants (GHZ):           4.6266359           0.6849065           0.5965900
 Leave Link  202 at Sun Apr  7 14:48:30 2024, MaxMem=   104857600 cpu:               0.0 elap:               0.0
 (Enter /home/eric/data/opt/apps/gaussian/g16A.03/g16/l301.exe)
 Standard basis: STO-3G (5D, 7F)
 Ernie: Thresh=  0.10000D-02 Tol=  0.10000D-05 Strict=F.
 There are    25 symmetry adapted cartesian basis functions of AG  symmetry.
 There are     5 symmetry adapted cartesian basis functions of BG  symmetry.
 There are     5 symmetry adapted cartesian basis functions of AU  symmetry.
 There are    25 symmetry adapted cartesian basis functions of BU  symmetry.
 There are    25 symmetry adapted basis functions of AG  symmetry.
 There are     5 symmetry adapted basis functions of BG  symmetry.
 There are     5 symmetry adapted basis functions of AU  symmetry.
 There are    25 symmetry adapted basis functions of BU  symmetry.
    60 basis functions,   180 primitive gaussians,    60 cartesian basis functions
    35 alpha electrons       35 beta electrons
       nuclear repulsion energy       445.8952119585 Hartrees.
 IExCor=  402 DFT=T Ex+Corr=B3LYP ExCW=0 ScaHFX=  0.200000
 ScaDFX=  0.800000  0.720000  1.000000  0.810000 ScalE2=  1.000000  1.000000
 IRadAn=      5 IRanWt=     -1 IRanGd=            0 ICorTp=0 IEmpDi=  4
 NAtoms=   20 NActive=   20 NUniq=   10 SFac= 4.00D+00 NAtFMM=   60 NAOKFM=F Big=F
 Integral buffers will be    131072 words long.
 Raffenetti 2 integral format.
 Two-electron integral symmetry is turned on.
 Leave Link  301 at Sun Apr  7 14:48:30 2024, MaxMem=   104857600 cpu:               0.0 elap:               0.0
 (Enter /home/eric/data/opt/apps/gaussian/g16A.03/g16/l302.exe)
 NPDir=0 NMtPBC=     1 NCelOv=     1 NCel=       1 NClECP=     1 NCelD=      1
         NCelK=      1 NCelE2=     1 NClLst=     1 CellRange=     0.0.
 One-electron integrals computed using PRISM.
 One-electron integral symmetry used in STVInt
 NBasis=    60 RedAO= T EigKep=  1.81D-01  NBF=    25     5     5    25
 NBsUse=    60 1.00D-06 EigRej= -1.00D+00 NBFU=    25     5     5    25
 Precomputing XC quadrature grid using
 IXCGrd= 4 IRadAn=           5 IRanWt=          -1 IRanGd=           0 AccXCQ= 0.00D+00.
 Generated NRdTot=       0 NPtTot=           0 NUsed=           0 NTot=          32
 NSgBfM=    59    59    59    59    59 MxSgAt=    20 MxSgA2=    20.
 Leave Link  302 at Sun Apr  7 14:48:31 2024, MaxMem=   104857600 cpu:               0.3 elap:               0.3
 (Enter /home/eric/data/opt/apps/gaussian/g16A.03/g16/l303.exe)
 DipDrv:  MaxL=1.
 Leave Link  303 at Sun Apr  7 14:48:31 2024, MaxMem=   104857600 cpu:               0.0 elap:               0.0
 (Enter /home/eric/data/opt/apps/gaussian/g16A.03/g16/l401.exe)
 ExpMin= 1.69D-01 ExpMax= 7.16D+01 ExpMxC= 7.16D+01 IAcc=3 IRadAn=         5 AccDes= 0.00D+00
 Harris functional with IExCor=  402 and IRadAn=       5 diagonalized for initial guess.
 HarFok:  IExCor=  402 AccDes= 0.00D+00 IRadAn=         5 IDoV= 1 UseB2=F ITyADJ=14
 ICtDFT=  3500011 ScaDFX=  1.000000  1.000000  1.000000  1.000000
 FoFCou: FMM=F IPFlag=           0 FMFlag=      100000 FMFlg1=           0
         NFxFlg=           0 DoJE=T BraDBF=F KetDBF=T FulRan=T
         wScrn=  0.000000 ICntrl=       500 IOpCl=  0 I1Cent=   200000004 NGrid=           0
         NMat0=    1 NMatS0=      1 NMatT0=    0 NMatD0=    1 NMtDS0=    0 NMtDT0=    0
 Petite list used in FoFCou.
 Harris En= -382.205679244189    
 JPrj=0 DoOrth=F DoCkMO=F.
 Initial guess orbital symmetries:
       Occupied  (BU) (AG) (BU) (AG) (BU) (AG) (BU) (AG) (BU) (AG)
                 (AG) (BU) (AG) (BU) (BU) (AG) (AG) (BU) (AG) (AG)
                 (BU) (BU) (AG) (BU) (BU) (BU) (AG) (AU) (BU) (AG)
                 (AG) (BG) (AU) (BG) (BG)
       Virtual   (AU) (AU) (BG) (AU) (BG) (AG) (BU) (BU) (AG) (AG)
                 (BU) (BU) (AG) (BU) (AG) (AG) (BU) (AG) (BU) (BU)
                 (AG) (AG) (BU) (AG) (BU)
 The electronic state of the initial guess is 1-AG.
 Leave Link  401 at Sun Apr  7 14:48:31 2024, MaxMem=   104857600 cpu:               0.6 elap:               0.6
 (Enter /home/eric/data/opt/apps/gaussian/g16A.03/g16/l502.exe)
 Keep R1 ints in memory in symmetry-blocked form, NReq=2566210.
 FoFCou: FMM=F IPFlag=           0 FMFlag=           0 FMFlg1=           0
         NFxFlg=           0 DoJE=F BraDBF=F KetDBF=F FulRan=T
         wScrn=  0.000000 ICntrl=       600 IOpCl=  0 I1Cent=           0 NGrid=           0
         NMat0=    1 NMatS0=   1830 NMatT0=    0 NMatD0=    1 NMtDS0=    0 NMtDT0=    0
 Petite list used in FoFCou.
 Closed shell SCF:
 Using DIIS extrapolation, IDIIS=  1040.
 NGot=   104857600 LenX=   104337807 LenY=   104334147
 Requested convergence on RMS density matrix=1.00D-08 within   4 cycles.
 Requested convergence on MAX density matrix=1.00D-06.
 Requested convergence on             energy=1.00D-06.
 No special actions if energy rises.
 Integral accuracy reduced to 1.0D-05 until final iterations.

 Cycle   1  Pass 0  IDiag  1:
 E= -382.254547161634    
 DIIS: error= 1.76D-02 at cycle   1 NSaved=   1.
 NSaved= 1 IEnMin= 1 EnMin= -382.254547161634     IErMin= 1 ErrMin= 1.76D-02
 ErrMax= 1.76D-02  0.00D+00 EMaxC= 1.00D-01 BMatC= 3.90D-02 BMatP= 3.90D-02
 IDIUse=3 WtCom= 8.24D-01 WtEn= 1.76D-01
 Coeff-Com:  0.100D+01
 Coeff-En:   0.100D+01
 Coeff:      0.100D+01
 Gap=     0.191 Goal=   None    Shift=    0.000
 GapD=    0.191 DampG=1.000 DampE=0.500 DampFc=0.5000 IDamp=-1.
 Damping current iteration by 5.00D-01
 RMSDP=7.80D-03 MaxDP=9.48D-02              OVMax= 3.59D-02

 Failed to achieve initial convergence to 1.0D-08 in  1 cycles.
 Switch to full accuracy anyway.
 Cycle   2  Pass 1  IDiag  1:
 E= -382.283408903273     Delta-E=       -0.028861741639 Rises=F Damp=T
 DIIS: error= 5.39D-03 at cycle   1 NSaved=   1.
 NSaved= 1 IEnMin= 1 EnMin= -382.283408903273     IErMin= 1 ErrMin= 5.39D-03
 ErrMax= 5.39D-03  0.00D+00 EMaxC= 1.00D-01 BMatC= 3.09D-03 BMatP= 3.09D-03
 IDIUse=3 WtCom= 9.46D-01 WtEn= 5.39D-02
 Coeff-Com:  0.100D+01
 Coeff-En:   0.100D+01
 Coeff:      0.100D+01
 Gap=     0.191 Goal=   None    Shift=    0.000
 RMSDP=7.80D-03 MaxDP=9.48D-02 DE=-2.89D-02 OVMax= 4.26D-02

 Cycle   3  Pass 1  IDiag  1:
 E= -382.305853728509     Delta-E=       -0.022444825237 Rises=F Damp=F
 DIIS: error= 5.60D-03 at cycle   2 NSaved=   2.
 NSaved= 2 IEnMin= 2 EnMin= -382.305853728509     IErMin= 1 ErrMin= 5.39D-03
 ErrMax= 5.60D-03  0.00D+00 EMaxC= 1.00D-01 BMatC= 1.75D-03 BMatP= 3.09D-03
 IDIUse=3 WtCom= 9.44D-01 WtEn= 5.60D-02
 Coeff-Com:  0.413D+00 0.587D+00
 Coeff-En:   0.000D+00 0.100D+01
 Coeff:      0.390D+00 0.610D+00
 Gap=     0.190 Goal=   None    Shift=    0.000
 RMSDP=1.42D-03 MaxDP=3.27D-02 DE=-2.24D-02 OVMax= 2.51D-02

 Cycle   4  Pass 1  IDiag  1:
 E= -382.307260193911     Delta-E=       -0.001406465402 Rises=F Damp=F
 DIIS: error= 4.35D-03 at cycle   3 NSaved=   3.
 NSaved= 3 IEnMin= 3 EnMin= -382.307260193911     IErMin= 3 ErrMin= 4.35D-03
 ErrMax= 4.35D-03  0.00D+00 EMaxC= 1.00D-01 BMatC= 7.99D-04 BMatP= 1.75D-03
 IDIUse=3 WtCom= 9.56D-01 WtEn= 4.35D-02
 Coeff-Com:  0.137D+00 0.399D+00 0.464D+00
 Coeff-En:   0.000D+00 0.309D+00 0.691D+00
 Coeff:      0.131D+00 0.395D+00 0.474D+00
 Gap=     0.190 Goal=   None    Shift=    0.000
 RMSDP=6.24D-04 MaxDP=1.56D-02 DE=-1.41D-03 OVMax= 1.27D-02

 >>>>>>>>>> Convergence criterion not met.
 SCF Done:  E(RB3LYP) =  -382.307260194     A.U. after    5 cycles
            NFock=  4  Conv=0.62D-03     -V/T= 2.0172
 KE= 3.758584123180D+02 PE=-1.776542317566D+03 EE= 5.724814330956D+02
 Convergence failure -- run terminated.
 Error termination via Lnk1e in /home/eric/data/opt/apps/gaussian/g16A.03/g16/l502.exe at Sun Apr  7 14:48:33 2024.
 Job cpu time:       0 days  0 hours  0 minutes  2.4 seconds.
 Elapsed time:       0 days  0 hours  0 minutes  2.4 seconds.
 File lengths (MBytes):  RWF=      6 Int=      0 D2E=      0 Chk=      1 Scr=      1
