 Entering Gaussian System, Link 0=g16
 Initial command:
 /home/eric/data/opt/apps/gaussian/g16A.03/g16/l1.exe "/tmp/Gau-2173154.inp" -scrdir="/tmp/"
 Entering Link 1 = /home/eric/data/opt/apps/gaussian/g16A.03/g16/l1.exe PID=   2173156.
  
 Copyright (c) 1988,1990,1992,1993,1995,1998,2003,2009,2016,
            Gaussian, Inc.  All Rights Reserved.
  
 This is part of the Gaussian(R) 16 program.  It is based on
 the Gaussian(R) 09 system (copyright 2009, Gaussian, Inc.),
 the Gaussian(R) 03 system (copyright 2003, Gaussian, Inc.),
 the Gaussian(R) 98 system (copyright 1998, Gaussian, Inc.),
 the Gaussian(R) 94 system (copyright 1995, Gaussian, Inc.),
 the Gaussian 92(TM) system (copyright 1992, Gaussian, Inc.),
 the Gaussian 90(TM) system (copyright 1990, Gaussian, Inc.),
 the Gaussian 88(TM) system (copyright 1988, Gaussian, Inc.),
 the Gaussian 86(TM) system (copyright 1986, Carnegie Mellon
 University), and the Gaussian 82(TM) system (copyright 1983,
 Carnegie Mellon University). Gaussian is a federally registered
 trademark of Gaussian, Inc.
  
 This software contains proprietary and confidential information,
 including trade secrets, belonging to Gaussian, Inc.
  
 This software is provided under written license and may be
 used, copied, transmitted, or stored only in accord with that
 written license.
  
 The following legend is applicable only to US Government
 contracts under FAR:
  
                    RESTRICTED RIGHTS LEGEND
  
 Use, reproduction and disclosure by the US Government is
 subject to restrictions as set forth in subparagraphs (a)
 and (c) of the Commercial Computer Software - Restricted
 Rights clause in FAR 52.227-19.
  
 Gaussian, Inc.
 340 Quinnipiac St., Bldg. 40, Wallingford CT 06492
  
  
 ---------------------------------------------------------------
 Warning -- This program may not be used in any manner that
 competes with the business of Gaussian, Inc. or will provide
 assistance to any competitor of Gaussian, Inc.  The licensee
 of this program is prohibited from giving any competitor of
 Gaussian, Inc. access to this program.  By using this program,
 the user acknowledges that Gaussian, Inc. is engaged in the
 business of creating and licensing software in the field of
 computational chemistry and represents and warrants to the
 licensee that it is not a competitor of Gaussian, Inc. and that
 it will not use this program in any manner prohibited above.
 ---------------------------------------------------------------
  

 Cite this work as:
 Gaussian 16, Revision A.03,
 M. J. Frisch, G. W. Trucks, H. B. Schlegel, G. E. Scuseria, 
 M. A. Robb, J. R. Cheeseman, G. Scalmani, V. Barone, 
 G. A. Petersson, H. Nakatsuji, X. Li, M. Caricato, A. V. Marenich, 
 J. Bloino, B. G. Janesko, R. Gomperts, B. Mennucci, H. P. Hratchian, 
 J. V. Ortiz, A. F. Izmaylov, J. L. Sonnenberg, D. Williams-Young, 
 F. Ding, F. Lipparini, F. Egidi, J. Goings, B. Peng, A. Petrone, 
 T. Henderson, D. Ranasinghe, V. G. Zakrzewski, J. Gao, N. Rega, 
 G. Zheng, W. Liang, M. Hada, M. Ehara, K. Toyota, R. Fukuda, 
 J. Hasegawa, M. Ishida, T. Nakajima, Y. Honda, O. Kitao, H. Nakai, 
 T. Vreven, K. Throssell, J. A. Montgomery, Jr., J. E. Peralta, 
 F. Ogliaro, M. J. Bearpark, J. J. Heyd, E. N. Brothers, K. N. Kudin, 
 V. N. Staroverov, T. A. Keith, R. Kobayashi, J. Normand, 
 K. Raghavachari, A. P. Rendell, J. C. Burant, S. S. Iyengar, 
 J. Tomasi, M. Cossi, J. M. Millam, M. Klene, C. Adamo, R. Cammi, 
 J. W. Ochterski, R. L. Martin, K. Morokuma, O. Farkas, 
 J. B. Foresman, and D. J. Fox, Gaussian, Inc., Wallingford CT, 2016.
 
 ******************************************
 Gaussian 16:  ES64L-G16RevA.03 25-Dec-2016
                29-Jun-2025 
 ******************************************
 %chk=dvb_gopt_qchem_unconverged.chk
 ------------------------------------------
 #p b3lyp/sto-3g opt(maxcycles=5,maxstep=1)
 ------------------------------------------
 1/6=5,8=1,18=20,19=15,26=3,38=1/1,3;
 2/9=110,12=2,17=6,18=5,40=1/2;
 3/6=3,11=2,25=1,30=1,71=1,74=-5/1,2,3;
 4//1;
 5/5=2,38=5/2;
 6/7=2,8=2,9=2,10=2,28=1/1;
 7//1,2,3,16;
 1/6=5,8=1,18=20,19=15,26=3/3(2);
 2/9=110/2;
 99//99;
 2/9=110/2;
 3/6=3,11=2,25=1,30=1,71=1,74=-5/1,2,3;
 4/5=5,16=3,69=1/1;
 5/5=2,38=5/2;
 7//1,2,3,16;
 1/6=5,8=1,18=20,19=15,26=3/3(-5);
 2/9=110/2;
 6/7=2,8=2,9=2,10=2,19=2,28=1/1;
 99/9=1/99;
 Leave Link    1 at Sun Jun 29 23:44:13 2025, MaxMem=           0 cpu:               0.0 elap:               0.0
 (Enter /home/eric/data/opt/apps/gaussian/g16A.03/g16/l101.exe)
 ---------------------------------
 dvb not allowed to optimize fully
 ---------------------------------
 Symbolic Z-matrix:
 Charge =  0 Multiplicity = 1
 C                     0.27868  -1.36683   0. 
 C                     1.32303  -0.44174   0. 
 C                     1.04435   0.92485   0. 
 C                    -0.27868   1.36683   0. 
 C                    -1.32303   0.44174   0. 
 C                    -1.04435  -0.92485   0. 
 H                     2.36595  -0.79038   0. 
 H                     1.86746   1.65408   0. 
 H                    -2.36595   0.79038   0. 
 H                    -1.86746  -1.65408   0. 
 C                    -0.58659   2.8759    0. 
 C                     0.3635    3.80076   0. 
 H                    -1.65648   3.12394   0. 
 H                     0.1443    4.87693   0. 
 H                     1.43339   3.55272   0. 
 C                     0.58659  -2.8759    0. 
 C                    -0.3635   -3.80076   0. 
 H                     1.65648  -3.12394   0. 
 H                    -0.1443   -4.87693   0. 
 H                    -1.43339  -3.55272   0. 
 
 ITRead=  0  0  0  0  0  0  0  0  0  0  0  0  0  0  0  0  0  0  0  0
 MicOpt= -1 -1 -1 -1 -1 -1 -1 -1 -1 -1 -1 -1 -1 -1 -1 -1 -1 -1 -1 -1
 NAtoms=     20 NQM=       20 NQMF=       0 NMMI=      0 NMMIF=      0
                NMic=       0 NMicF=      0.
                    Isotopes and Nuclear Properties:
 (Nuclear quadrupole moments (NQMom) in fm**2, nuclear magnetic moments (NMagM)
  in nuclear magnetons)

  Atom         1           2           3           4           5           6           7           8           9          10
 IAtWgt=          12          12          12          12          12          12           1           1           1           1
 AtmWgt=  12.0000000  12.0000000  12.0000000  12.0000000  12.0000000  12.0000000   1.0078250   1.0078250   1.0078250   1.0078250
 NucSpn=           0           0           0           0           0           0           1           1           1           1
 AtZEff=  -0.0000000  -0.0000000  -0.0000000  -0.0000000  -0.0000000  -0.0000000  -0.0000000  -0.0000000  -0.0000000  -0.0000000
 NQMom=    0.0000000   0.0000000   0.0000000   0.0000000   0.0000000   0.0000000   0.0000000   0.0000000   0.0000000   0.0000000
 NMagM=    0.0000000   0.0000000   0.0000000   0.0000000   0.0000000   0.0000000   2.7928460   2.7928460   2.7928460   2.7928460
 AtZNuc=   6.0000000   6.0000000   6.0000000   6.0000000   6.0000000   6.0000000   1.0000000   1.0000000   1.0000000   1.0000000

  Atom        11          12          13          14          15          16          17          18          19          20
 IAtWgt=          12          12           1           1           1          12          12           1           1           1
 AtmWgt=  12.0000000  12.0000000   1.0078250   1.0078250   1.0078250  12.0000000  12.0000000   1.0078250   1.0078250   1.0078250
 NucSpn=           0           0           1           1           1           0           0           1           1           1
 AtZEff=  -0.0000000  -0.0000000  -0.0000000  -0.0000000  -0.0000000  -0.0000000  -0.0000000  -0.0000000  -0.0000000  -0.0000000
 NQMom=    0.0000000   0.0000000   0.0000000   0.0000000   0.0000000   0.0000000   0.0000000   0.0000000   0.0000000   0.0000000
 NMagM=    0.0000000   0.0000000   2.7928460   2.7928460   2.7928460   0.0000000   0.0000000   2.7928460   2.7928460   2.7928460
 AtZNuc=   6.0000000   6.0000000   1.0000000   1.0000000   1.0000000   6.0000000   6.0000000   1.0000000   1.0000000   1.0000000
 Leave Link  101 at Sun Jun 29 23:44:14 2025, MaxMem=   104857600 cpu:               0.1 elap:               0.0
 (Enter /home/eric/data/opt/apps/gaussian/g16A.03/g16/l103.exe)

 GradGradGradGradGradGradGradGradGradGradGradGradGradGradGradGradGradGrad
 Berny optimization.
 Initialization pass.
                           ----------------------------
                           !    Initial Parameters    !
                           ! (Angstroms and Degrees)  !
 --------------------------                            --------------------------
 ! Name  Definition              Value          Derivative Info.                !
 --------------------------------------------------------------------------------
 ! R1    R(1,2)                  1.3952         estimate D2E/DX2                !
 ! R2    R(1,6)                  1.3949         estimate D2E/DX2                !
 ! R3    R(1,16)                 1.5402         estimate D2E/DX2                !
 ! R4    R(2,3)                  1.3947         estimate D2E/DX2                !
 ! R5    R(2,7)                  1.0997         estimate D2E/DX2                !
 ! R6    R(3,4)                  1.3949         estimate D2E/DX2                !
 ! R7    R(3,8)                  1.0997         estimate D2E/DX2                !
 ! R8    R(4,5)                  1.3952         estimate D2E/DX2                !
 ! R9    R(4,11)                 1.5402         estimate D2E/DX2                !
 ! R10   R(5,6)                  1.3947         estimate D2E/DX2                !
 ! R11   R(5,9)                  1.0997         estimate D2E/DX2                !
 ! R12   R(6,10)                 1.0997         estimate D2E/DX2                !
 ! R13   R(11,12)                1.3259         estimate D2E/DX2                !
 ! R14   R(11,13)                1.0983         estimate D2E/DX2                !
 ! R15   R(12,14)                1.0983         estimate D2E/DX2                !
 ! R16   R(12,15)                1.0983         estimate D2E/DX2                !
 ! R17   R(16,17)                1.3259         estimate D2E/DX2                !
 ! R18   R(16,18)                1.0983         estimate D2E/DX2                !
 ! R19   R(17,19)                1.0983         estimate D2E/DX2                !
 ! R20   R(17,20)                1.0983         estimate D2E/DX2                !
 ! A1    A(2,1,6)              119.9923         estimate D2E/DX2                !
 ! A2    A(2,1,16)             120.0024         estimate D2E/DX2                !
 ! A3    A(6,1,16)             120.0053         estimate D2E/DX2                !
 ! A4    A(1,2,3)              120.0086         estimate D2E/DX2                !
 ! A5    A(1,2,7)              119.9808         estimate D2E/DX2                !
 ! A6    A(3,2,7)              120.0106         estimate D2E/DX2                !
 ! A7    A(2,3,4)              119.9991         estimate D2E/DX2                !
 ! A8    A(2,3,8)              120.0128         estimate D2E/DX2                !
 ! A9    A(4,3,8)              119.9881         estimate D2E/DX2                !
 ! A10   A(3,4,5)              119.9923         estimate D2E/DX2                !
 ! A11   A(3,4,11)             120.0053         estimate D2E/DX2                !
 ! A12   A(5,4,11)             120.0024         estimate D2E/DX2                !
 ! A13   A(4,5,6)              120.0086         estimate D2E/DX2                !
 ! A14   A(4,5,9)              119.9808         estimate D2E/DX2                !
 ! A15   A(6,5,9)              120.0106         estimate D2E/DX2                !
 ! A16   A(1,6,5)              119.9991         estimate D2E/DX2                !
 ! A17   A(1,6,10)             119.9881         estimate D2E/DX2                !
 ! A18   A(5,6,10)             120.0128         estimate D2E/DX2                !
 ! A19   A(4,11,12)            122.6967         estimate D2E/DX2                !
 ! A20   A(4,11,13)            114.5853         estimate D2E/DX2                !
 ! A21   A(12,11,13)           122.718          estimate D2E/DX2                !
 ! A22   A(11,12,14)           122.7159         estimate D2E/DX2                !
 ! A23   A(11,12,15)           122.718          estimate D2E/DX2                !
 ! A24   A(14,12,15)           114.5661         estimate D2E/DX2                !
 ! A25   A(1,16,17)            122.6967         estimate D2E/DX2                !
 ! A26   A(1,16,18)            114.5853         estimate D2E/DX2                !
 ! A27   A(17,16,18)           122.718          estimate D2E/DX2                !
 ! A28   A(16,17,19)           122.7159         estimate D2E/DX2                !
 ! A29   A(16,17,20)           122.718          estimate D2E/DX2                !
 ! A30   A(19,17,20)           114.5661         estimate D2E/DX2                !
 ! D1    D(6,1,2,3)              0.0            estimate D2E/DX2                !
 ! D2    D(6,1,2,7)            180.0            estimate D2E/DX2                !
 ! D3    D(16,1,2,3)           180.0            estimate D2E/DX2                !
 ! D4    D(16,1,2,7)             0.0            estimate D2E/DX2                !
 ! D5    D(2,1,6,5)              0.0            estimate D2E/DX2                !
 ! D6    D(2,1,6,10)           180.0            estimate D2E/DX2                !
 ! D7    D(16,1,6,5)           180.0            estimate D2E/DX2                !
 ! D8    D(16,1,6,10)            0.0            estimate D2E/DX2                !
 ! D9    D(2,1,16,17)          180.0            estimate D2E/DX2                !
 ! D10   D(2,1,16,18)            0.0            estimate D2E/DX2                !
 ! D11   D(6,1,16,17)            0.0            estimate D2E/DX2                !
 ! D12   D(6,1,16,18)          180.0            estimate D2E/DX2                !
 ! D13   D(1,2,3,4)              0.0            estimate D2E/DX2                !
 ! D14   D(1,2,3,8)            180.0            estimate D2E/DX2                !
 ! D15   D(7,2,3,4)            180.0            estimate D2E/DX2                !
 ! D16   D(7,2,3,8)              0.0            estimate D2E/DX2                !
 ! D17   D(2,3,4,5)              0.0            estimate D2E/DX2                !
 ! D18   D(2,3,4,11)           180.0            estimate D2E/DX2                !
 ! D19   D(8,3,4,5)            180.0            estimate D2E/DX2                !
 ! D20   D(8,3,4,11)             0.0            estimate D2E/DX2                !
 ! D21   D(3,4,5,6)              0.0            estimate D2E/DX2                !
 ! D22   D(3,4,5,9)            180.0            estimate D2E/DX2                !
 ! D23   D(11,4,5,6)           180.0            estimate D2E/DX2                !
 ! D24   D(11,4,5,9)             0.0            estimate D2E/DX2                !
 ! D25   D(3,4,11,12)            0.0            estimate D2E/DX2                !
 ! D26   D(3,4,11,13)          180.0            estimate D2E/DX2                !
 ! D27   D(5,4,11,12)          180.0            estimate D2E/DX2                !
 ! D28   D(5,4,11,13)            0.0            estimate D2E/DX2                !
 ! D29   D(4,5,6,1)              0.0            estimate D2E/DX2                !
 ! D30   D(4,5,6,10)           180.0            estimate D2E/DX2                !
 ! D31   D(9,5,6,1)            180.0            estimate D2E/DX2                !
 ! D32   D(9,5,6,10)             0.0            estimate D2E/DX2                !
 ! D33   D(4,11,12,14)         180.0            estimate D2E/DX2                !
 ! D34   D(4,11,12,15)           0.0            estimate D2E/DX2                !
 ! D35   D(13,11,12,14)          0.0            estimate D2E/DX2                !
 ! D36   D(13,11,12,15)        180.0            estimate D2E/DX2                !
 ! D37   D(1,16,17,19)         180.0            estimate D2E/DX2                !
 ! D38   D(1,16,17,20)           0.0            estimate D2E/DX2                !
 ! D39   D(18,16,17,19)          0.0            estimate D2E/DX2                !
 ! D40   D(18,16,17,20)        180.0            estimate D2E/DX2                !
 --------------------------------------------------------------------------------
 Trust Radius=1.00D-02 FncErr=1.00D-07 GrdErr=1.00D-06 EigMax=2.50D+02 EigMin=1.00D-04
 Number of steps in this run=      5 maximum allowed number of steps=    120.
 GradGradGradGradGradGradGradGradGradGradGradGradGradGradGradGradGradGrad

 Leave Link  103 at Sun Jun 29 23:44:14 2025, MaxMem=   104857600 cpu:               0.0 elap:               0.0
 (Enter /home/eric/data/opt/apps/gaussian/g16A.03/g16/l202.exe)
                          Input orientation:                          
 ---------------------------------------------------------------------
 Center     Atomic      Atomic             Coordinates (Angstroms)
 Number     Number       Type             X           Y           Z
 ---------------------------------------------------------------------
      1          6           0        0.278679   -1.366832    0.000000
      2          6           0        1.323030   -0.441736    0.000000
      3          6           0        1.044345    0.924850    0.000000
      4          6           0       -0.278679    1.366832    0.000000
      5          6           0       -1.323030    0.441736    0.000000
      6          6           0       -1.044345   -0.924850    0.000000
      7          1           0        2.365954   -0.790377    0.000000
      8          1           0        1.867461    1.654080    0.000000
      9          1           0       -2.365954    0.790377    0.000000
     10          1           0       -1.867461   -1.654080    0.000000
     11          6           0       -0.586592    2.875899    0.000000
     12          6           0        0.363502    3.800764    0.000000
     13          1           0       -1.656478    3.123943    0.000000
     14          1           0        0.144296    4.876932    0.000000
     15          1           0        1.433388    3.552720    0.000000
     16          6           0        0.586592   -2.875899    0.000000
     17          6           0       -0.363502   -3.800764    0.000000
     18          1           0        1.656478   -3.123943    0.000000
     19          1           0       -0.144296   -4.876932    0.000000
     20          1           0       -1.433388   -3.552720    0.000000
 ---------------------------------------------------------------------
                    Distance matrix (angstroms):
                    1          2          3          4          5
     1  C    0.000000
     2  C    1.395160   0.000000
     3  C    2.416205   1.394712   0.000000
     4  C    2.789904   2.415862   1.394899   0.000000
     5  C    2.415862   2.789652   2.416168   1.395160   0.000000
     6  C    1.394899   2.416168   2.789985   2.416205   1.394712
     7  H    2.165414   1.099655   2.165330   3.412864   3.889307
     8  H    3.413229   2.165375   1.099680   2.165278   3.413065
     9  H    3.412864   3.889307   3.412950   2.165414   1.099655
    10  H    2.165278   3.413065   3.889665   3.413229   2.165375
    11  C    4.330065   3.827971   2.542941   1.540161   2.543127
    12  C    5.168292   4.349655   2.955407   2.517226   3.758652
    13  H    4.889979   4.646669   3.482880   2.232883   2.702855
    14  H    6.245210   5.447719   4.053276   3.535494   4.671618
    15  H    5.053251   3.995980   2.656512   2.776560   4.156449
    16  C    1.540161   2.543127   3.828215   4.330065   3.827971
    17  C    2.517226   3.758652   4.930868   5.168292   4.349655
    18  H    2.232883   2.702855   4.094805   4.889979   4.646669
    19  H    3.535494   4.671618   5.922292   6.245210   5.447719
    20  H    2.776560   4.156449   5.117401   5.053251   3.995980
                    6          7          8          9         10
     6  C    0.000000
     7  H    3.412950   0.000000
     8  H    3.889665   2.494768   0.000000
     9  H    2.165330   4.988962   4.320624   0.000000
    10  H    1.099680   4.320624   4.989345   2.494768   0.000000
    11  C    3.828215   4.707347   2.741390   2.741447   4.707583
    12  C    4.930868   5.008832   2.621096   4.063540   5.893430
    13  H    4.094805   5.612652   3.818199   2.439034   4.782679
    14  H    5.922292   6.087213   3.654597   4.795966   6.833834
    15  H    5.117401   4.442092   1.947628   4.697397   6.164931
    16  C    2.542941   2.741447   4.707583   4.707347   2.741390
    17  C    2.955407   4.063540   5.893430   5.008832   2.621096
    18  H    3.482880   2.439034   4.782679   5.612652   3.818199
    19  H    4.053276   4.795966   6.833834   6.087213   3.654597
    20  H    2.656512   4.697397   6.164931   4.442092   1.947628
                   11         12         13         14         15
    11  C    0.000000
    12  C    1.325916   0.000000
    13  H    1.098263   2.130353   0.000000
    14  H    2.130336   1.098266   2.513117   0.000000
    15  H    2.130353   1.098263   3.119474   1.848052   0.000000
    16  C    5.870225   6.680390   6.405425   7.765438   6.484151
    17  C    6.680390   7.636214   7.044385   8.692541   7.569845
    18  H    6.405425   7.044385   7.071899   8.142524   6.680390
    19  H    7.765438   8.692541   8.142524   9.758133   8.576021
    20  H    6.484151   7.569845   6.680390   8.576021   7.661964
                   16         17         18         19         20
    16  C    0.000000
    17  C    1.325916   0.000000
    18  H    1.098263   2.130353   0.000000
    19  H    2.130336   1.098266   2.513117   0.000000
    20  H    2.130353   1.098263   3.119474   1.848052   0.000000
 Stoichiometry    C10H10
 Framework group  C2H[SGH(C10H10)]
 Deg. of freedom    19
 Full point group                 C2H     NOp   4
 Largest Abelian subgroup         C2H     NOp   4
 Largest concise Abelian subgroup C2      NOp   2
                         Standard orientation:                         
 ---------------------------------------------------------------------
 Center     Atomic      Atomic             Coordinates (Angstroms)
 Number     Number       Type             X           Y           Z
 ---------------------------------------------------------------------
      1          6           0        1.208103    0.697409    0.000000
      2          6           0       -0.000235    1.394826    0.000000
      3          6           0       -1.208103    0.697490    0.000000
      4          6           0       -1.208103   -0.697409    0.000000
      5          6           0        0.000235   -1.394826    0.000000
      6          6           0        1.208103   -0.697490    0.000000
      7          1           0       -0.000015    2.494481    0.000000
      8          1           0       -2.160567    1.247133    0.000000
      9          1           0        0.000015   -2.494481    0.000000
     10          1           0        2.160567   -1.247133    0.000000
     11          6           0       -2.541850   -1.467612    0.000000
     12          6           0       -3.720103   -0.859523    0.000000
     13          1           0       -2.438113   -2.560965    0.000000
     14          1           0       -4.671363   -1.408424    0.000000
     15          1           0       -3.823839    0.233830    0.000000
     16          6           0        2.541850    1.467612    0.000000
     17          6           0        3.720103    0.859523    0.000000
     18          1           0        2.438113    2.560965    0.000000
     19          1           0        4.671363    1.408424    0.000000
     20          1           0        3.823839   -0.233830    0.000000
 ---------------------------------------------------------------------
 Rotational constants (GHZ):           4.6160103           0.7067289           0.6128927
 Leave Link  202 at Sun Jun 29 23:44:14 2025, MaxMem=   104857600 cpu:               0.0 elap:               0.0
 (Enter /home/eric/data/opt/apps/gaussian/g16A.03/g16/l301.exe)
 Standard basis: STO-3G (5D, 7F)
 Ernie: Thresh=  0.10000D-02 Tol=  0.10000D-05 Strict=F.
 There are    25 symmetry adapted cartesian basis functions of AG  symmetry.
 There are     5 symmetry adapted cartesian basis functions of BG  symmetry.
 There are     5 symmetry adapted cartesian basis functions of AU  symmetry.
 There are    25 symmetry adapted cartesian basis functions of BU  symmetry.
 There are    25 symmetry adapted basis functions of AG  symmetry.
 There are     5 symmetry adapted basis functions of BG  symmetry.
 There are     5 symmetry adapted basis functions of AU  symmetry.
 There are    25 symmetry adapted basis functions of BU  symmetry.
    60 basis functions,   180 primitive gaussians,    60 cartesian basis functions
    35 alpha electrons       35 beta electrons
       nuclear repulsion energy       450.0061382977 Hartrees.
 IExCor=  402 DFT=T Ex+Corr=B3LYP ExCW=0 ScaHFX=  0.200000
 ScaDFX=  0.800000  0.720000  1.000000  0.810000 ScalE2=  1.000000  1.000000
 IRadAn=      5 IRanWt=     -1 IRanGd=            0 ICorTp=0 IEmpDi=  4
 NAtoms=   20 NActive=   20 NUniq=   10 SFac= 4.00D+00 NAtFMM=   60 NAOKFM=F Big=F
 Integral buffers will be    131072 words long.
 Raffenetti 2 integral format.
 Two-electron integral symmetry is turned on.
 Leave Link  301 at Sun Jun 29 23:44:14 2025, MaxMem=   104857600 cpu:               0.0 elap:               0.0
 (Enter /home/eric/data/opt/apps/gaussian/g16A.03/g16/l302.exe)
 NPDir=0 NMtPBC=     1 NCelOv=     1 NCel=       1 NClECP=     1 NCelD=      1
         NCelK=      1 NCelE2=     1 NClLst=     1 CellRange=     0.0.
 One-electron integrals computed using PRISM.
 One-electron integral symmetry used in STVInt
 NBasis=    60 RedAO= T EigKep=  1.71D-01  NBF=    25     5     5    25
 NBsUse=    60 1.00D-06 EigRej= -1.00D+00 NBFU=    25     5     5    25
 Precomputing XC quadrature grid using
 IXCGrd= 4 IRadAn=           5 IRanWt=          -1 IRanGd=           0 AccXCQ= 0.00D+00.
 Generated NRdTot=       0 NPtTot=           0 NUsed=           0 NTot=          32
 NSgBfM=    59    59    59    59    59 MxSgAt=    20 MxSgA2=    20.
 Leave Link  302 at Sun Jun 29 23:44:14 2025, MaxMem=   104857600 cpu:               0.3 elap:               0.3
 (Enter /home/eric/data/opt/apps/gaussian/g16A.03/g16/l303.exe)
 DipDrv:  MaxL=1.
 Leave Link  303 at Sun Jun 29 23:44:14 2025, MaxMem=   104857600 cpu:               0.0 elap:               0.0
 (Enter /home/eric/data/opt/apps/gaussian/g16A.03/g16/l401.exe)
 ExpMin= 1.69D-01 ExpMax= 7.16D+01 ExpMxC= 7.16D+01 IAcc=3 IRadAn=         5 AccDes= 0.00D+00
 Harris functional with IExCor=  402 and IRadAn=       5 diagonalized for initial guess.
 HarFok:  IExCor=  402 AccDes= 0.00D+00 IRadAn=         5 IDoV= 1 UseB2=F ITyADJ=14
 ICtDFT=  3500011 ScaDFX=  1.000000  1.000000  1.000000  1.000000
 FoFCou: FMM=F IPFlag=           0 FMFlag=      100000 FMFlg1=           0
         NFxFlg=           0 DoJE=T BraDBF=F KetDBF=T FulRan=T
         wScrn=  0.000000 ICntrl=       500 IOpCl=  0 I1Cent=   200000004 NGrid=           0
         NMat0=    1 NMatS0=      1 NMatT0=    0 NMatD0=    1 NMtDS0=    0 NMtDT0=    0
 Petite list used in FoFCou.
 Harris En= -382.197518224221    
 JPrj=0 DoOrth=F DoCkMO=F.
 Initial guess orbital symmetries:
       Occupied  (BU) (AG) (BU) (AG) (BU) (AG) (BU) (AG) (BU) (AG)
                 (AG) (BU) (AG) (BU) (BU) (AG) (AG) (BU) (AG) (AG)
                 (BU) (BU) (AG) (BU) (BU) (BU) (AG) (AU) (AG) (BU)
                 (AG) (BG) (AU) (BG) (BG)
       Virtual   (AU) (AU) (BG) (AU) (BG) (AG) (BU) (BU) (AG) (AG)
                 (BU) (BU) (AG) (BU) (AG) (AG) (BU) (AG) (BU) (BU)
                 (AG) (AG) (BU) (AG) (BU)
 The electronic state of the initial guess is 1-AG.
 Leave Link  401 at Sun Jun 29 23:44:14 2025, MaxMem=   104857600 cpu:               0.6 elap:               0.6
 (Enter /home/eric/data/opt/apps/gaussian/g16A.03/g16/l502.exe)
 Keep R1 ints in memory in symmetry-blocked form, NReq=2566258.
 FoFCou: FMM=F IPFlag=           0 FMFlag=           0 FMFlg1=           0
         NFxFlg=           0 DoJE=F BraDBF=F KetDBF=F FulRan=T
         wScrn=  0.000000 ICntrl=       600 IOpCl=  0 I1Cent=           0 NGrid=           0
         NMat0=    1 NMatS0=   1830 NMatT0=    0 NMatD0=    1 NMtDS0=    0 NMtDT0=    0
 Petite list used in FoFCou.
 Closed shell SCF:
 Using DIIS extrapolation, IDIIS=  1040.
 NGot=   104857600 LenX=   104337711 LenY=   104333670
 Requested convergence on RMS density matrix=1.00D-08 within 128 cycles.
 Requested convergence on MAX density matrix=1.00D-06.
 Requested convergence on             energy=1.00D-06.
 No special actions if energy rises.
 Integral accuracy reduced to 1.0D-05 until final iterations.

 Cycle   1  Pass 0  IDiag  1:
 E= -382.243783895432    
 DIIS: error= 2.08D-02 at cycle   1 NSaved=   1.
 NSaved= 1 IEnMin= 1 EnMin= -382.243783895432     IErMin= 1 ErrMin= 2.08D-02
 ErrMax= 2.08D-02  0.00D+00 EMaxC= 1.00D-01 BMatC= 4.09D-02 BMatP= 4.09D-02
 IDIUse=3 WtCom= 7.92D-01 WtEn= 2.08D-01
 Coeff-Com:  0.100D+01
 Coeff-En:   0.100D+01
 Coeff:      0.100D+01
 Gap=     0.209 Goal=   None    Shift=    0.000
 GapD=    0.209 DampG=1.000 DampE=0.500 DampFc=0.5000 IDamp=-1.
 Damping current iteration by 5.00D-01
 RMSDP=8.03D-03 MaxDP=9.78D-02              OVMax= 3.82D-02

 Cycle   2  Pass 0  IDiag  1:
 E= -382.274092133267     Delta-E=       -0.030308237835 Rises=F Damp=T
 DIIS: error= 5.38D-03 at cycle   2 NSaved=   2.
 NSaved= 2 IEnMin= 2 EnMin= -382.274092133267     IErMin= 2 ErrMin= 5.38D-03
 ErrMax= 5.38D-03  0.00D+00 EMaxC= 1.00D-01 BMatC= 3.17D-03 BMatP= 4.09D-02
 IDIUse=3 WtCom= 9.46D-01 WtEn= 5.38D-02
 Coeff-Com: -0.200D+00 0.120D+01
 Coeff-En:   0.000D+00 0.100D+01
 Coeff:     -0.189D+00 0.119D+01
 Gap=     0.210 Goal=   None    Shift=    0.000
 RMSDP=2.12D-03 MaxDP=3.91D-02 DE=-3.03D-02 OVMax= 5.02D-02

 Cycle   3  Pass 0  IDiag  1:
 E= -382.295675864404     Delta-E=       -0.021583731137 Rises=F Damp=F
 DIIS: error= 9.42D-03 at cycle   3 NSaved=   3.
 NSaved= 3 IEnMin= 3 EnMin= -382.295675864404     IErMin= 2 ErrMin= 5.38D-03
 ErrMax= 9.42D-03  0.00D+00 EMaxC= 1.00D-01 BMatC= 3.61D-03 BMatP= 3.17D-03
 IDIUse=3 WtCom= 9.34D-02 WtEn= 9.07D-01
 Coeff-Com: -0.166D+00 0.725D+00 0.441D+00
 Coeff-En:   0.000D+00 0.000D+00 0.100D+01
 Coeff:     -0.155D-01 0.677D-01 0.948D+00
 Gap=     0.209 Goal=   None    Shift=    0.000
 RMSDP=3.19D-03 MaxDP=7.83D-02 DE=-2.16D-02 OVMax= 5.99D-02

 Cycle   4  Pass 0  IDiag  1:
 E= -382.287478772699     Delta-E=        0.008197091705 Rises=F Damp=F
 DIIS: error= 1.61D-02 at cycle   4 NSaved=   4.
 NSaved= 4 IEnMin= 3 EnMin= -382.295675864404     IErMin= 2 ErrMin= 5.38D-03
 ErrMax= 1.61D-02  0.00D+00 EMaxC= 1.00D-01 BMatC= 1.02D-02 BMatP= 3.17D-03
 IDIUse=2 WtCom= 0.00D+00 WtEn= 1.00D+00
 Coeff-En:   0.000D+00 0.000D+00 0.695D+00 0.305D+00
 Coeff:      0.000D+00 0.000D+00 0.695D+00 0.305D+00
 Gap=     0.209 Goal=   None    Shift=    0.000
 RMSDP=1.60D-03 MaxDP=3.94D-02 DE= 8.20D-03 OVMax= 2.91D-02

 Cycle   5  Pass 0  IDiag  1:
 E= -382.299751505728     Delta-E=       -0.012272733029 Rises=F Damp=F
 DIIS: error= 3.13D-03 at cycle   5 NSaved=   5.
 NSaved= 5 IEnMin= 5 EnMin= -382.299751505728     IErMin= 5 ErrMin= 3.13D-03
 ErrMax= 3.13D-03  0.00D+00 EMaxC= 1.00D-01 BMatC= 3.98D-04 BMatP= 3.17D-03
 IDIUse=3 WtCom= 9.69D-01 WtEn= 3.13D-02
 Coeff-Com:  0.848D-02-0.184D-01 0.321D+00 0.777D-01 0.611D+00
 Coeff-En:   0.000D+00 0.000D+00 0.108D+00 0.000D+00 0.892D+00
 Coeff:      0.821D-02-0.178D-01 0.314D+00 0.753D-01 0.620D+00
 Gap=     0.210 Goal=   None    Shift=    0.000
 RMSDP=4.09D-04 MaxDP=9.76D-03 DE=-1.23D-02 OVMax= 7.24D-03

 Cycle   6  Pass 0  IDiag  1:
 E= -382.300252662459     Delta-E=       -0.000501156732 Rises=F Damp=F
 DIIS: error= 9.66D-05 at cycle   6 NSaved=   6.
 NSaved= 6 IEnMin= 6 EnMin= -382.300252662459     IErMin= 6 ErrMin= 9.66D-05
 ErrMax= 9.66D-05  0.00D+00 EMaxC= 1.00D-01 BMatC= 3.76D-07 BMatP= 3.98D-04
 IDIUse=1 WtCom= 1.00D+00 WtEn= 0.00D+00
 Coeff-Com:  0.625D-03-0.166D-02 0.367D-01 0.556D-02 0.111D+00 0.848D+00
 Coeff:      0.625D-03-0.166D-02 0.367D-01 0.556D-02 0.111D+00 0.848D+00
 Gap=     0.210 Goal=   None    Shift=    0.000
 RMSDP=1.23D-05 MaxDP=2.58D-04 DE=-5.01D-04 OVMax= 1.43D-04

 Cycle   7  Pass 0  IDiag  1:
 E= -382.300253120733     Delta-E=       -0.000000458274 Rises=F Damp=F
 DIIS: error= 7.31D-06 at cycle   7 NSaved=   7.
 NSaved= 7 IEnMin= 7 EnMin= -382.300253120733     IErMin= 7 ErrMin= 7.31D-06
 ErrMax= 7.31D-06  0.00D+00 EMaxC= 1.00D-01 BMatC= 4.21D-09 BMatP= 3.76D-07
 IDIUse=1 WtCom= 1.00D+00 WtEn= 0.00D+00
 Coeff-Com: -0.201D-03 0.320D-03-0.236D-02-0.185D-02 0.126D-01 0.369D+00
 Coeff-Com:  0.623D+00
 Coeff:     -0.201D-03 0.320D-03-0.236D-02-0.185D-02 0.126D-01 0.369D+00
 Coeff:      0.623D+00
 Gap=     0.210 Goal=   None    Shift=    0.000
 RMSDP=1.76D-06 MaxDP=1.64D-05 DE=-4.58D-07 OVMax= 1.71D-05

 Initial convergence to 1.0D-05 achieved.  Increase integral accuracy.
 Cycle   8  Pass 1  IDiag  1:
 E= -382.300235646379     Delta-E=        0.000017474354 Rises=F Damp=F
 DIIS: error= 1.07D-06 at cycle   1 NSaved=   1.
 NSaved= 1 IEnMin= 1 EnMin= -382.300235646379     IErMin= 1 ErrMin= 1.07D-06
 ErrMax= 1.07D-06  0.00D+00 EMaxC= 1.00D-01 BMatC= 4.16D-11 BMatP= 4.16D-11
 IDIUse=1 WtCom= 1.00D+00 WtEn= 0.00D+00
 Coeff-Com:  0.100D+01
 Coeff:      0.100D+01
 Gap=     0.210 Goal=   None    Shift=    0.000
 RMSDP=1.76D-06 MaxDP=1.64D-05 DE= 1.75D-05 OVMax= 3.34D-06

 Cycle   9  Pass 1  IDiag  1:
 E= -382.300235646453     Delta-E=       -0.000000000074 Rises=F Damp=F
 DIIS: error= 3.88D-07 at cycle   2 NSaved=   2.
 NSaved= 2 IEnMin= 2 EnMin= -382.300235646453     IErMin= 2 ErrMin= 3.88D-07
 ErrMax= 3.88D-07  0.00D+00 EMaxC= 1.00D-01 BMatC= 8.78D-12 BMatP= 4.16D-11
 IDIUse=1 WtCom= 1.00D+00 WtEn= 0.00D+00
 Coeff-Com:  0.250D+00 0.750D+00
 Coeff:      0.250D+00 0.750D+00
 Gap=     0.210 Goal=   None    Shift=    0.000
 RMSDP=1.06D-07 MaxDP=1.49D-06 DE=-7.40D-11 OVMax= 1.07D-06

 Cycle  10  Pass 1  IDiag  1:
 E= -382.300235646462     Delta-E=       -0.000000000009 Rises=F Damp=F
 DIIS: error= 2.34D-07 at cycle   3 NSaved=   3.
 NSaved= 3 IEnMin= 3 EnMin= -382.300235646462     IErMin= 3 ErrMin= 2.34D-07
 ErrMax= 2.34D-07  0.00D+00 EMaxC= 1.00D-01 BMatC= 2.74D-12 BMatP= 8.78D-12
 IDIUse=1 WtCom= 1.00D+00 WtEn= 0.00D+00
 Coeff-Com: -0.616D-03 0.353D+00 0.648D+00
 Coeff:     -0.616D-03 0.353D+00 0.648D+00
 Gap=     0.210 Goal=   None    Shift=    0.000
 RMSDP=4.05D-08 MaxDP=6.99D-07 DE=-8.75D-12 OVMax= 5.83D-07

 Cycle  11  Pass 1  IDiag  1:
 E= -382.300235646466     Delta-E=       -0.000000000004 Rises=F Damp=F
 DIIS: error= 4.64D-08 at cycle   4 NSaved=   4.
 NSaved= 4 IEnMin= 4 EnMin= -382.300235646466     IErMin= 4 ErrMin= 4.64D-08
 ErrMax= 4.64D-08  0.00D+00 EMaxC= 1.00D-01 BMatC= 1.53D-13 BMatP= 2.74D-12
 IDIUse=1 WtCom= 1.00D+00 WtEn= 0.00D+00
 Coeff-Com: -0.883D-02 0.148D+00 0.322D+00 0.539D+00
 Coeff:     -0.883D-02 0.148D+00 0.322D+00 0.539D+00
 Gap=     0.210 Goal=   None    Shift=    0.000
 RMSDP=9.17D-09 MaxDP=1.37D-07 DE=-4.43D-12 OVMax= 4.60D-08

 SCF Done:  E(RB3LYP) =  -382.300235646     A.U. after   11 cycles
            NFock= 11  Conv=0.92D-08     -V/T= 2.0167
 KE= 3.760297852661D+02 PE=-1.784698708739D+03 EE= 5.763625495284D+02
 Leave Link  502 at Sun Jun 29 23:44:17 2025, MaxMem=   104857600 cpu:               2.7 elap:               2.7
 (Enter /home/eric/data/opt/apps/gaussian/g16A.03/g16/l601.exe)
 Copying SCF densities to generalized density rwf, IOpCl= 0 IROHF=0.

 **********************************************************************

            Population analysis using the SCF density.

 **********************************************************************

 Orbital symmetries:
       Occupied  (BU) (AG) (BU) (AG) (BU) (AG) (BU) (AG) (BU) (AG)
                 (AG) (BU) (AG) (BU) (BU) (AG) (AG) (BU) (AG) (AG)
                 (BU) (BU) (BU) (AG) (BU) (BU) (AG) (AU) (BU) (AG)
                 (AG) (BG) (AU) (BG) (BG)
       Virtual   (AU) (AU) (BG) (AU) (BG) (AG) (BU) (BU) (AG) (BU)
                 (AG) (BU) (AG) (BU) (AG) (AG) (BU) (AG) (BU) (BU)
                 (AG) (AG) (BU) (AG) (BU)
 The electronic state is 1-AG.
 Alpha  occ. eigenvalues --  -10.01795 -10.01788 -10.00754 -10.00754 -10.00665
 Alpha  occ. eigenvalues --  -10.00662 -10.00559 -10.00548  -9.99193  -9.99193
 Alpha  occ. eigenvalues --   -0.81796  -0.75504  -0.72068  -0.70413  -0.67021
 Alpha  occ. eigenvalues --   -0.58511  -0.56058  -0.53191  -0.51212  -0.46191
 Alpha  occ. eigenvalues --   -0.43852  -0.41040  -0.39958  -0.39711  -0.37550
 Alpha  occ. eigenvalues --   -0.35777  -0.34896  -0.33016  -0.30527  -0.29544
 Alpha  occ. eigenvalues --   -0.28089  -0.26315  -0.21604  -0.19752  -0.16006
 Alpha virt. eigenvalues --    0.04958   0.09073   0.11645   0.18147   0.28032
 Alpha virt. eigenvalues --    0.31923   0.32955   0.36540   0.37027   0.41287
 Alpha virt. eigenvalues --    0.41597   0.42156   0.44573   0.46877   0.49587
 Alpha virt. eigenvalues --    0.53877   0.57055   0.58675   0.61013   0.62652
 Alpha virt. eigenvalues --    0.64574   0.69281   0.74302   0.80623   0.81603
          Condensed to atoms (all electrons):
               1          2          3          4          5          6
     1  C    4.780389   0.500524  -0.029604  -0.012317  -0.029430   0.500965
     2  C    0.500524   4.806228   0.508294  -0.029430  -0.011748  -0.031087
     3  C   -0.029604   0.508294   4.806998   0.500965  -0.031087  -0.011871
     4  C   -0.012317  -0.029430   0.500965   4.780389   0.500524  -0.029604
     5  C   -0.029430  -0.011748  -0.031087   0.500524   4.806228   0.508294
     6  C    0.500965  -0.031087  -0.011871  -0.029604   0.508294   4.806998
     7  H   -0.025567   0.388651  -0.025124   0.001439   0.000038   0.001436
     8  H    0.001432  -0.024991   0.388914  -0.025106   0.001426   0.000038
     9  H    0.001439   0.000038   0.001436  -0.025567   0.388651  -0.025124
    10  H   -0.025106   0.001426   0.000038   0.001432  -0.024991   0.388914
    11  C    0.000021   0.000837  -0.025479   0.394478  -0.027176   0.000856
    12  C   -0.000000   0.000033  -0.006226  -0.025466   0.000653  -0.000008
    13  H   -0.000001  -0.000017   0.001008  -0.024484  -0.003009   0.000007
    14  H    0.000000   0.000000   0.000046   0.001373  -0.000015   0.000000
    15  H   -0.000001  -0.000016  -0.001933  -0.004547   0.000028  -0.000001
    16  C    0.394478  -0.027176   0.000856   0.000021   0.000837  -0.025479
    17  C   -0.025466   0.000653  -0.000008  -0.000000   0.000033  -0.006226
    18  H   -0.024484  -0.003009   0.000007  -0.000001  -0.000017   0.001008
    19  H    0.001373  -0.000015   0.000000   0.000000   0.000000   0.000046
    20  H   -0.004547   0.000028  -0.000001  -0.000001  -0.000016  -0.001933
               7          8          9         10         11         12
     1  C   -0.025567   0.001432   0.001439  -0.025106   0.000021  -0.000000
     2  C    0.388651  -0.024991   0.000038   0.001426   0.000837   0.000033
     3  C   -0.025124   0.388914   0.001436   0.000038  -0.025479  -0.006226
     4  C    0.001439  -0.025106  -0.025567   0.001432   0.394478  -0.025466
     5  C    0.000038   0.001426   0.388651  -0.024991  -0.027176   0.000653
     6  C    0.001436   0.000038  -0.025124   0.388914   0.000856  -0.000008
     7  H    0.587060  -0.003771   0.000002  -0.000035  -0.000016   0.000001
     8  H   -0.003771   0.587091  -0.000035   0.000002  -0.003921  -0.001930
     9  H    0.000002  -0.000035   0.587060  -0.003771  -0.003911   0.000035
    10  H   -0.000035   0.000002  -0.003771   0.587091  -0.000015   0.000000
    11  C   -0.000016  -0.003921  -0.003911  -0.000015   4.802202   0.598464
    12  C    0.000001  -0.001930   0.000035   0.000000   0.598464   4.843714
    13  H    0.000000   0.000037   0.001003  -0.000001   0.386413  -0.025664
    14  H   -0.000000  -0.000025  -0.000002  -0.000000  -0.023489   0.386633
    15  H    0.000005   0.001126   0.000001   0.000000  -0.023984   0.386142
    16  C   -0.003911  -0.000015  -0.000016  -0.003921   0.000000   0.000000
    17  C    0.000035   0.000000   0.000001  -0.001930   0.000000  -0.000000
    18  H    0.001003  -0.000001   0.000000   0.000037  -0.000000   0.000000
    19  H   -0.000002  -0.000000  -0.000000  -0.000025  -0.000000   0.000000
    20  H    0.000001   0.000000   0.000005   0.001126   0.000000   0.000000
              13         14         15         16         17         18
     1  C   -0.000001   0.000000  -0.000001   0.394478  -0.025466  -0.024484
     2  C   -0.000017   0.000000  -0.000016  -0.027176   0.000653  -0.003009
     3  C    0.001008   0.000046  -0.001933   0.000856  -0.000008   0.000007
     4  C   -0.024484   0.001373  -0.004547   0.000021  -0.000000  -0.000001
     5  C   -0.003009  -0.000015   0.000028   0.000837   0.000033  -0.000017
     6  C    0.000007   0.000000  -0.000001  -0.025479  -0.006226   0.001008
     7  H    0.000000  -0.000000   0.000005  -0.003911   0.000035   0.001003
     8  H    0.000037  -0.000025   0.001126  -0.000015   0.000000  -0.000001
     9  H    0.001003  -0.000002   0.000001  -0.000016   0.000001   0.000000
    10  H   -0.000001  -0.000000   0.000000  -0.003921  -0.001930   0.000037
    11  C    0.386413  -0.023489  -0.023984   0.000000   0.000000  -0.000000
    12  C   -0.025664   0.386633   0.386142   0.000000  -0.000000   0.000000
    13  H    0.588306  -0.004408   0.002000  -0.000000   0.000000   0.000000
    14  H   -0.004408   0.585953  -0.024426  -0.000000   0.000000  -0.000000
    15  H    0.002000  -0.024426   0.589053   0.000000   0.000000   0.000000
    16  C   -0.000000  -0.000000   0.000000   4.802202   0.598464   0.386413
    17  C    0.000000   0.000000   0.000000   0.598464   4.843714  -0.025664
    18  H    0.000000  -0.000000   0.000000   0.386413  -0.025664   0.588306
    19  H   -0.000000  -0.000000   0.000000  -0.023489   0.386633  -0.004408
    20  H    0.000000   0.000000  -0.000000  -0.023984   0.386142   0.002000
              19         20
     1  C    0.001373  -0.004547
     2  C   -0.000015   0.000028
     3  C    0.000000  -0.000001
     4  C    0.000000  -0.000001
     5  C    0.000000  -0.000016
     6  C    0.000046  -0.001933
     7  H   -0.000002   0.000001
     8  H   -0.000000   0.000000
     9  H   -0.000000   0.000005
    10  H   -0.000025   0.001126
    11  C   -0.000000   0.000000
    12  C    0.000000   0.000000
    13  H   -0.000000   0.000000
    14  H   -0.000000   0.000000
    15  H    0.000000  -0.000000
    16  C   -0.023489  -0.023984
    17  C    0.386633   0.386142
    18  H   -0.004408   0.002000
    19  H    0.585953  -0.024426
    20  H   -0.024426   0.589053
 Mulliken charges:
               1
     1  C   -0.004097
     2  C   -0.079223
     3  C   -0.077230
     4  C   -0.004097
     5  C   -0.079223
     6  C   -0.077230
     7  H    0.078754
     8  H    0.079730
     9  H    0.078754
    10  H    0.079730
    11  C   -0.075280
    12  C   -0.156380
    13  H    0.078811
    14  H    0.078363
    15  H    0.076553
    16  C   -0.075280
    17  C   -0.156380
    18  H    0.078811
    19  H    0.078363
    20  H    0.076553
 Sum of Mulliken charges =  -0.00000
 Mulliken charges with hydrogens summed into heavy atoms:
               1
     1  C   -0.004097
     2  C   -0.000469
     3  C    0.002500
     4  C   -0.004097
     5  C   -0.000469
     6  C    0.002500
    11  C    0.003531
    12  C   -0.001465
    16  C    0.003531
    17  C   -0.001465
 Electronic spatial extent (au):  <R**2>=           1815.7757
 Charge=             -0.0000 electrons
 Dipole moment (field-independent basis, Debye):
    X=             -0.0000    Y=             -0.0000    Z=              0.0000  Tot=              0.0000
 Quadrupole moment (field-independent basis, Debye-Ang):
   XX=            -50.8150   YY=            -50.2926   ZZ=            -58.5742
   XY=             -0.3354   XZ=              0.0000   YZ=              0.0000
 Traceless Quadrupole moment (field-independent basis, Debye-Ang):
   XX=              2.4123   YY=              2.9347   ZZ=             -5.3470
   XY=             -0.3354   XZ=              0.0000   YZ=              0.0000
 Octapole moment (field-independent basis, Debye-Ang**2):
  XXX=             -0.0000  YYY=              0.0000  ZZZ=              0.0000  XYY=             -0.0000
  XXY=             -0.0000  XXZ=              0.0000  XZZ=              0.0000  YZZ=              0.0000
  YYZ=              0.0000  XYZ=              0.0000
 Hexadecapole moment (field-independent basis, Debye-Ang**3):
 XXXX=          -1664.3048 YYYY=           -475.3461 ZZZZ=            -47.5456 XXXY=           -220.2416
 XXXZ=              0.0000 YYYX=           -221.7718 YYYZ=              0.0000 ZZZX=              0.0000
 ZZZY=              0.0000 XXYY=           -358.9675 XXZZ=           -328.1119 YYZZ=           -100.7348
 XXYZ=              0.0000 YYXZ=              0.0000 ZZXY=            -85.5625
 N-N= 4.500061382977D+02 E-N=-1.784698707706D+03  KE= 3.760297852661D+02
 Symmetry AG   KE= 1.814872936475D+02
 Symmetry BG   KE= 7.819651325866D+00
 Symmetry AU   KE= 4.680625486732D+00
 Symmetry BU   KE= 1.820422148060D+02
 No NMR shielding tensors so no spin-rotation constants.
 Leave Link  601 at Sun Jun 29 23:44:17 2025, MaxMem=   104857600 cpu:               0.0 elap:               0.0
 (Enter /home/eric/data/opt/apps/gaussian/g16A.03/g16/l701.exe)
 ... and contract with generalized density number  0.
 Compute integral first derivatives.
 Leave Link  701 at Sun Jun 29 23:44:17 2025, MaxMem=   104857600 cpu:               0.0 elap:               0.0
 (Enter /home/eric/data/opt/apps/gaussian/g16A.03/g16/l702.exe)
 L702 exits ... SP integral derivatives will be done elsewhere.
 Leave Link  702 at Sun Jun 29 23:44:17 2025, MaxMem=   104857600 cpu:               0.0 elap:               0.0
 (Enter /home/eric/data/opt/apps/gaussian/g16A.03/g16/l703.exe)
 Integral derivatives from FoFJK, PRISM(SPDF).
 Compute integral first derivatives, UseDBF=F ICtDFT=           0.
 Calling FoFJK, ICntrl=      2127 FMM=F ISym2X=1 I1Cent= 0 IOpClX= 0 NMat=1 NMatS=1 NMatT=0.
 FoFJK:  IHMeth= 1 ICntrl=    2127 DoSepK=F KAlg= 0 I1Cent=           0 FoldK=F
 IRaf=         0 NMat=       1 IRICut=       1 DoRegI=T DoRafI=F ISym2E= 1 IDoP0=0 IntGTp=1.
 FoFCou: FMM=F IPFlag=           0 FMFlag=      100000 FMFlg1=         800
         NFxFlg=           0 DoJE=F BraDBF=F KetDBF=F FulRan=T
         wScrn=  0.000000 ICntrl=      2127 IOpCl=  0 I1Cent=           0 NGrid=           0
         NMat0=    1 NMatS0=      1 NMatT0=    0 NMatD0=    1 NMtDS0=    0 NMtDT0=    0
 Petite list used in FoFCou.
 Leave Link  703 at Sun Jun 29 23:44:18 2025, MaxMem=   104857600 cpu:               0.9 elap:               0.9
 (Enter /home/eric/data/opt/apps/gaussian/g16A.03/g16/l716.exe)
 Dipole        = 1.77635684D-15 4.27435864D-15 0.00000000D+00
 ***** Axes restored to original set *****
 -------------------------------------------------------------------
 Center     Atomic                   Forces (Hartrees/Bohr)
 Number     Number              X              Y              Z
 -------------------------------------------------------------------
      1        6           0.008585255   -0.050683665   -0.000000000
      2        6           0.019231448    0.006175509   -0.000000000
      3        6           0.019935357   -0.001517808   -0.000000000
      4        6          -0.008585255    0.050683665   -0.000000000
      5        6          -0.019231448   -0.006175509   -0.000000000
      6        6          -0.019935357    0.001517808   -0.000000000
      7        1          -0.001339721   -0.000188912   -0.000000000
      8        1          -0.001476456   -0.003428646   -0.000000000
      9        1           0.001339721    0.000188912   -0.000000000
     10        1           0.001476456    0.003428646   -0.000000000
     11        6          -0.004645629   -0.039235131   -0.000000000
     12        6           0.013082113    0.023341633   -0.000000000
     13        1          -0.000334703    0.002986635   -0.000000000
     14        1          -0.002000183   -0.001518721   -0.000000000
     15        1          -0.002863311    0.000184742   -0.000000000
     16        6           0.004645629    0.039235131   -0.000000000
     17        6          -0.013082113   -0.023341633   -0.000000000
     18        1           0.000334703   -0.002986635   -0.000000000
     19        1           0.002000183    0.001518721   -0.000000000
     20        1           0.002863311   -0.000184742   -0.000000000
 -------------------------------------------------------------------
 Cartesian Forces:  Max     0.050683665 RMS     0.013864267
 Leave Link  716 at Sun Jun 29 23:44:18 2025, MaxMem=   104857600 cpu:               0.0 elap:               0.0
 (Enter /home/eric/data/opt/apps/gaussian/g16A.03/g16/l103.exe)

 GradGradGradGradGradGradGradGradGradGradGradGradGradGradGradGradGradGrad
 Berny optimization.
 FormGI is forming the generalized inverse of G from B-inverse, IUseBI=4.
 Internal  Forces:  Max     0.025383622 RMS     0.008118599
 Search for a local minimum.
 Step number   1 out of a maximum of    5
 All quantities printed in internal units (Hartrees-Bohrs-Radians)
 RMS Force = .81186D-02 SwitMx=.10000D-02 MixMth= 1
 Mixed Optimization -- RFO/linear search
 Second derivative matrix not updated -- first step.
 ITU=  0
     Eigenvalues ---    0.00235   0.00235   0.01514   0.01617   0.01762
     Eigenvalues ---    0.01762   0.02154   0.02155   0.02156   0.02156
     Eigenvalues ---    0.02157   0.02158   0.02158   0.03069   0.03069
     Eigenvalues ---    0.03069   0.03069   0.16000   0.16000   0.16000
     Eigenvalues ---    0.16000   0.16000   0.16000   0.16000   0.16000
     Eigenvalues ---    0.16000   0.16000   0.22000   0.22000   0.22000
     Eigenvalues ---    0.22982   0.24000   0.25000   0.25000   0.28505
     Eigenvalues ---    0.28505   0.33718   0.33718   0.33720   0.33720
     Eigenvalues ---    0.33875   0.33875   0.33875   0.33875   0.33875
     Eigenvalues ---    0.33875   0.42142   0.42486   0.46432   0.46472
     Eigenvalues ---    0.46477   0.46508   0.60481   0.60481
 RFO step:  Lambda=-1.60768409D-02 EMin= 2.34697426D-03
 Linear search not attempted -- first point.
 Maximum step size (   0.010) exceeded in Quadratic search.
    -- Step size scaled by   0.045
 Iteration  1 RMS(Cart)=  0.00419031 RMS(Int)=  0.00000458
 Iteration  2 RMS(Cart)=  0.00000613 RMS(Int)=  0.00000000
 Iteration  3 RMS(Cart)=  0.00000000 RMS(Int)=  0.00000000
 ITry= 1 IFail=0 DXMaxC= 1.70D-02 DCOld= 1.00D+10 DXMaxT= 1.00D-02 DXLimC= 3.00D+00 Rises=F
 ClnCor:  largest displacement from symmetrization is 1.10D-11 for atom    19.
 Variable       Old X    -DE/DX   Delta X   Delta X   Delta X     New X
                                 (Linear)    (Quad)   (Total)
    R1        2.63647   0.02403   0.00000   0.00225   0.00225   2.63872
    R2        2.63598   0.02538   0.00000   0.00237   0.00237   2.63835
    R3        2.91048  -0.01460   0.00000  -0.00218  -0.00218   2.90831
    R4        2.63562   0.01298   0.00000   0.00121   0.00121   2.63683
    R5        2.07805  -0.00121   0.00000  -0.00015  -0.00015   2.07789
    R6        2.63598   0.02538   0.00000   0.00237   0.00237   2.63835
    R7        2.07809  -0.00338   0.00000  -0.00043  -0.00043   2.07767
    R8        2.63647   0.02403   0.00000   0.00225   0.00225   2.63872
    R9        2.91048  -0.01460   0.00000  -0.00218  -0.00218   2.90831
   R10        2.63562   0.01298   0.00000   0.00121   0.00121   2.63683
   R11        2.07805  -0.00121   0.00000  -0.00015  -0.00015   2.07789
   R12        2.07809  -0.00338   0.00000  -0.00043  -0.00043   2.07767
   R13        2.50562   0.02124   0.00000   0.00154   0.00154   2.50715
   R14        2.07542   0.00100   0.00000   0.00013   0.00013   2.07554
   R15        2.07542  -0.00109   0.00000  -0.00014  -0.00014   2.07529
   R16        2.07542  -0.00283   0.00000  -0.00036  -0.00036   2.07506
   R17        2.50562   0.02124   0.00000   0.00154   0.00154   2.50715
   R18        2.07542   0.00100   0.00000   0.00013   0.00013   2.07554
   R19        2.07542  -0.00109   0.00000  -0.00014  -0.00014   2.07529
   R20        2.07542  -0.00283   0.00000  -0.00036  -0.00036   2.07506
    A1        2.09426  -0.00839   0.00000  -0.00147  -0.00147   2.09279
    A2        2.09444  -0.00683   0.00000  -0.00112  -0.00112   2.09331
    A3        2.09449   0.01522   0.00000   0.00259   0.00259   2.09708
    A4        2.09455   0.00513   0.00000   0.00091   0.00091   2.09546
    A5        2.09406  -0.00319   0.00000  -0.00062  -0.00062   2.09344
    A6        2.09458  -0.00194   0.00000  -0.00030  -0.00030   2.09428
    A7        2.09438   0.00325   0.00000   0.00056   0.00056   2.09494
    A8        2.09462  -0.00328   0.00000  -0.00070  -0.00070   2.09392
    A9        2.09419   0.00002   0.00000   0.00014   0.00014   2.09433
   A10        2.09426  -0.00839   0.00000  -0.00147  -0.00147   2.09279
   A11        2.09449   0.01522   0.00000   0.00259   0.00259   2.09708
   A12        2.09444  -0.00683   0.00000  -0.00112  -0.00112   2.09331
   A13        2.09455   0.00513   0.00000   0.00091   0.00091   2.09546
   A14        2.09406  -0.00319   0.00000  -0.00062  -0.00062   2.09344
   A15        2.09458  -0.00194   0.00000  -0.00030  -0.00030   2.09428
   A16        2.09438   0.00325   0.00000   0.00056   0.00056   2.09494
   A17        2.09419   0.00002   0.00000   0.00014   0.00014   2.09433
   A18        2.09462  -0.00328   0.00000  -0.00070  -0.00070   2.09392
   A19        2.14146   0.01729   0.00000   0.00329   0.00329   2.14475
   A20        1.99989  -0.00571   0.00000  -0.00089  -0.00089   1.99900
   A21        2.14183  -0.01159   0.00000  -0.00239  -0.00239   2.13944
   A22        2.14180  -0.00281   0.00000  -0.00072  -0.00072   2.14108
   A23        2.14183   0.00092   0.00000   0.00023   0.00023   2.14207
   A24        1.99956   0.00189   0.00000   0.00048   0.00048   2.00004
   A25        2.14146   0.01729   0.00000   0.00329   0.00329   2.14475
   A26        1.99989  -0.00571   0.00000  -0.00089  -0.00089   1.99900
   A27        2.14183  -0.01159   0.00000  -0.00239  -0.00239   2.13944
   A28        2.14180  -0.00281   0.00000  -0.00072  -0.00072   2.14108
   A29        2.14183   0.00092   0.00000   0.00023   0.00023   2.14207
   A30        1.99956   0.00189   0.00000   0.00048   0.00048   2.00004
    D1        0.00000  -0.00000   0.00000  -0.00000   0.00000   0.00000
    D2        3.14159  -0.00000   0.00000  -0.00000   0.00000   3.14159
    D3        3.14159   0.00000   0.00000  -0.00000   0.00000   3.14159
    D4        0.00000   0.00000   0.00000  -0.00000   0.00000   0.00000
    D5        0.00000   0.00000   0.00000   0.00000   0.00000   0.00000
    D6        3.14159  -0.00000   0.00000  -0.00000   0.00000   3.14159
    D7        3.14159  -0.00000   0.00000   0.00000   0.00000   3.14159
    D8        0.00000   0.00000   0.00000   0.00000   0.00000   0.00000
    D9        3.14159   0.00000   0.00000   0.00000   0.00000   3.14159
   D10        0.00000  -0.00000   0.00000  -0.00000   0.00000   0.00000
   D11        0.00000  -0.00000   0.00000  -0.00000   0.00000   0.00000
   D12        3.14159   0.00000   0.00000  -0.00000   0.00000   3.14159
   D13        0.00000  -0.00000   0.00000   0.00000   0.00000   0.00000
   D14        3.14159   0.00000   0.00000   0.00000   0.00000   3.14159
   D15        3.14159   0.00000   0.00000   0.00000   0.00000   3.14159
   D16        0.00000  -0.00000   0.00000   0.00000   0.00000   0.00000
   D17        0.00000  -0.00000   0.00000  -0.00000   0.00000   0.00000
   D18        3.14159   0.00000   0.00000  -0.00000   0.00000   3.14159
   D19        3.14159  -0.00000   0.00000  -0.00000   0.00000   3.14159
   D20        0.00000  -0.00000   0.00000  -0.00000   0.00000   0.00000
   D21        0.00000   0.00000   0.00000   0.00000   0.00000   0.00000
   D22        3.14159  -0.00000   0.00000  -0.00000   0.00000   3.14159
   D23        3.14159  -0.00000   0.00000   0.00000   0.00000   3.14159
   D24        0.00000  -0.00000   0.00000   0.00000   0.00000   0.00000
   D25        0.00000  -0.00000   0.00000   0.00000   0.00000   0.00000
   D26        3.14159  -0.00000   0.00000  -0.00000   0.00000   3.14159
   D27        3.14159  -0.00000   0.00000   0.00000   0.00000   3.14159
   D28        0.00000  -0.00000   0.00000  -0.00000   0.00000   0.00000
   D29        0.00000   0.00000   0.00000   0.00000   0.00000   0.00000
   D30        3.14159   0.00000   0.00000   0.00000   0.00000   3.14159
   D31        3.14159   0.00000   0.00000   0.00000   0.00000   3.14159
   D32        0.00000   0.00000   0.00000   0.00000   0.00000   0.00000
   D33        3.14159   0.00000   0.00000  -0.00000   0.00000   3.14159
   D34        0.00000  -0.00000   0.00000  -0.00000   0.00000   0.00000
   D35        0.00000   0.00000   0.00000  -0.00000   0.00000   0.00000
   D36        3.14159  -0.00000   0.00000  -0.00000   0.00000   3.14159
   D37        3.14159   0.00000   0.00000   0.00000   0.00000   3.14159
   D38        0.00000   0.00000   0.00000   0.00000   0.00000   0.00000
   D39        0.00000   0.00000   0.00000   0.00000   0.00000   0.00000
   D40        3.14159  -0.00000   0.00000   0.00000   0.00000   3.14159
         Item               Value     Threshold  Converged?
 Maximum Force            0.025384     0.000450     NO 
 RMS     Force            0.008119     0.000300     NO 
 Maximum Displacement     0.016984     0.001800     NO 
 RMS     Displacement     0.004191     0.001200     NO 
 Predicted change in Energy=-7.061702D-04
 Lowest energy point so far.  Saving SCF results.
 GradGradGradGradGradGradGradGradGradGradGradGradGradGradGradGradGradGrad

 Leave Link  103 at Sun Jun 29 23:44:18 2025, MaxMem=   104857600 cpu:               0.0 elap:               0.0
 (Enter /home/eric/data/opt/apps/gaussian/g16A.03/g16/l202.exe)
                          Input orientation:                          
 ---------------------------------------------------------------------
 Center     Atomic      Atomic             Coordinates (Angstroms)
 Number     Number       Type             X           Y           Z
 ---------------------------------------------------------------------
      1          6           0        0.276688   -1.369092    0.000000
      2          6           0        1.322776   -0.444167    0.000000
      3          6           0        1.046466    0.923554    0.000000
      4          6           0       -0.276688    1.369092    0.000000
      5          6           0       -1.322776    0.444167    0.000000
      6          6           0       -1.046466   -0.923554    0.000000
      7          1           0        2.365088   -0.794381    0.000000
      8          1           0        1.871253    1.650551    0.000000
      9          1           0       -2.365088    0.794381    0.000000
     10          1           0       -1.871253   -1.650551    0.000000
     11          6           0       -0.584685    2.876968    0.000000
     12          6           0        0.362750    3.805717    0.000000
     13          1           0       -1.654909    3.123847    0.000000
     14          1           0        0.139028    4.880881    0.000000
     15          1           0        1.433369    3.561708    0.000000
     16          6           0        0.584685   -2.876968    0.000000
     17          6           0       -0.362750   -3.805717    0.000000
     18          1           0        1.654909   -3.123847    0.000000
     19          1           0       -0.139028   -4.880881    0.000000
     20          1           0       -1.433369   -3.561708    0.000000
 ---------------------------------------------------------------------
                    Distance matrix (angstroms):
                    1          2          3          4          5
     1  C    0.000000
     2  C    1.396348   0.000000
     3  C    2.418426   1.395352   0.000000
     4  C    2.793543   2.417891   1.396152   0.000000
     5  C    2.417891   2.790714   2.417255   1.396348   0.000000
     6  C    1.396152   2.417255   2.791446   2.418426   1.395352
     7  H    2.166034   1.099574   2.165656   3.414615   3.890288
     8  H    3.414803   2.165333   1.099453   2.166303   3.414262
     9  H    3.414615   3.890288   3.413998   2.166034   1.099574
    10  H    2.166303   3.414262   3.890899   3.414803   2.165333
    11  C    4.332550   3.829927   2.544892   1.539009   2.542302
    12  C    5.175525   4.356967   2.962149   2.519131   3.760455
    13  H    4.890559   4.647293   3.484065   2.231290   2.700184
    14  H    6.251489   5.455034   4.060034   3.536309   4.671328
    15  H    5.064652   4.007401   2.666374   2.780622   4.161178
    16  C    1.539009   2.542302   3.828473   4.332550   3.829927
    17  C    2.519131   3.760455   4.934764   5.175525   4.356967
    18  H    2.231290   2.700184   4.092879   4.890559   4.647293
    19  H    3.536309   4.671328   5.924261   6.251489   5.455034
    20  H    2.780622   4.161178   5.125150   5.064652   4.007401
                    6          7          8          9         10
     6  C    0.000000
     7  H    3.413998   0.000000
     8  H    3.890899   2.494306   0.000000
     9  H    2.165656   4.989862   4.321991   0.000000
    10  H    1.099453   4.321991   4.990352   2.494306   0.000000
    11  C    3.828473   4.709560   2.745128   2.739891   4.706769
    12  C    4.934764   5.016997   2.630651   4.063157   5.895899
    13  H    4.092879   5.613633   3.821572   2.435316   4.779296
    14  H    5.924261   6.096223   3.665466   4.792711   6.833800
    15  H    5.125150   4.454617   1.960680   4.699614   6.171561
    16  C    2.544892   2.739891   4.706769   4.709560   2.745128
    17  C    2.962149   4.063157   5.895899   5.016997   2.630651
    18  H    3.484065   2.435316   4.779296   5.613633   3.821572
    19  H    4.060034   4.792711   6.833800   6.096223   3.665466
    20  H    2.666374   4.699614   6.171561   4.454617   1.960680
                   11         12         13         14         15
    11  C    0.000000
    12  C    1.326728   0.000000
    13  H    1.098330   2.129764   0.000000
    14  H    2.130594   1.098194   2.511051   0.000000
    15  H    2.131059   1.098074   3.119164   1.848117   0.000000
    16  C    5.871558   6.686369   6.405119   7.770639   6.494368
    17  C    6.686369   7.645932   7.049009   8.701078   7.583205
    18  H    6.405119   7.049009   7.070259   8.146997   6.689224
    19  H    7.770639   8.701078   8.146997   9.765721   8.587767
    20  H    6.494368   7.583205   6.689224   8.587767   7.678623
                   16         17         18         19         20
    16  C    0.000000
    17  C    1.326728   0.000000
    18  H    1.098330   2.129764   0.000000
    19  H    2.130594   1.098194   2.511051   0.000000
    20  H    2.131059   1.098074   3.119164   1.848117   0.000000
 Stoichiometry    C10H10
 Framework group  C2H[SGH(C10H10)]
 Deg. of freedom    19
 Full point group                 C2H     NOp   4
 RotChk:  IX=0 Diff= 3.38D-03
 Largest Abelian subgroup         C2H     NOp   4
 Largest concise Abelian subgroup C2      NOp   2
                         Standard orientation:                         
 ---------------------------------------------------------------------
 Center     Atomic      Atomic             Coordinates (Angstroms)
 Number     Number       Type             X           Y           Z
 ---------------------------------------------------------------------
      1          6           0        1.209213    0.699125    0.000000
      2          6           0       -0.001179    1.395357    0.000000
      3          6           0       -1.209213    0.697028    0.000000
      4          6           0       -1.209213   -0.699125    0.000000
      5          6           0        0.001179   -1.395357    0.000000
      6          6           0        1.209213   -0.697028    0.000000
      7          1           0       -0.001897    2.494930    0.000000
      8          1           0       -2.161403    1.246692    0.000000
      9          1           0        0.001897   -2.494930    0.000000
     10          1           0        2.161403   -1.246692    0.000000
     11          6           0       -2.539961   -1.472208    0.000000
     12          6           0       -3.722495   -0.870691    0.000000
     13          1           0       -2.432404   -2.565259    0.000000
     14          1           0       -4.670050   -1.425821    0.000000
     15          1           0       -3.832898    0.221818    0.000000
     16          6           0        2.539961    1.472208    0.000000
     17          6           0        3.722495    0.870691    0.000000
     18          1           0        2.432404    2.565259    0.000000
     19          1           0        4.670050    1.425821    0.000000
     20          1           0        3.832898   -0.221818    0.000000
 ---------------------------------------------------------------------
 Rotational constants (GHZ):           4.6158255           0.7053595           0.6118592
 Leave Link  202 at Sun Jun 29 23:44:18 2025, MaxMem=   104857600 cpu:               0.0 elap:               0.0
 (Enter /home/eric/data/opt/apps/gaussian/g16A.03/g16/l301.exe)
 Standard basis: STO-3G (5D, 7F)
 Ernie: Thresh=  0.10000D-02 Tol=  0.10000D-05 Strict=F.
 There are    25 symmetry adapted cartesian basis functions of AG  symmetry.
 There are     5 symmetry adapted cartesian basis functions of BG  symmetry.
 There are     5 symmetry adapted cartesian basis functions of AU  symmetry.
 There are    25 symmetry adapted cartesian basis functions of BU  symmetry.
 There are    25 symmetry adapted basis functions of AG  symmetry.
 There are     5 symmetry adapted basis functions of BG  symmetry.
 There are     5 symmetry adapted basis functions of AU  symmetry.
 There are    25 symmetry adapted basis functions of BU  symmetry.
    60 basis functions,   180 primitive gaussians,    60 cartesian basis functions
    35 alpha electrons       35 beta electrons
       nuclear repulsion energy       449.7407866499 Hartrees.
 IExCor=  402 DFT=T Ex+Corr=B3LYP ExCW=0 ScaHFX=  0.200000
 ScaDFX=  0.800000  0.720000  1.000000  0.810000 ScalE2=  1.000000  1.000000
 IRadAn=      5 IRanWt=     -1 IRanGd=            0 ICorTp=0 IEmpDi=  4
 NAtoms=   20 NActive=   20 NUniq=   10 SFac= 4.00D+00 NAtFMM=   60 NAOKFM=F Big=F
 Integral buffers will be    131072 words long.
 Raffenetti 2 integral format.
 Two-electron integral symmetry is turned on.
 Leave Link  301 at Sun Jun 29 23:44:18 2025, MaxMem=   104857600 cpu:               0.0 elap:               0.0
 (Enter /home/eric/data/opt/apps/gaussian/g16A.03/g16/l302.exe)
 NPDir=0 NMtPBC=     1 NCelOv=     1 NCel=       1 NClECP=     1 NCelD=      1
         NCelK=      1 NCelE2=     1 NClLst=     1 CellRange=     0.0.
 One-electron integrals computed using PRISM.
 One-electron integral symmetry used in STVInt
 NBasis=    60 RedAO= T EigKep=  1.72D-01  NBF=    25     5     5    25
 NBsUse=    60 1.00D-06 EigRej= -1.00D+00 NBFU=    25     5     5    25
 Precomputing XC quadrature grid using
 IXCGrd= 4 IRadAn=           5 IRanWt=          -1 IRanGd=           0 AccXCQ= 0.00D+00.
 Generated NRdTot=       0 NPtTot=           0 NUsed=           0 NTot=          32
 NSgBfM=    59    59    59    59    59 MxSgAt=    20 MxSgA2=    20.
 Leave Link  302 at Sun Jun 29 23:44:19 2025, MaxMem=   104857600 cpu:               0.3 elap:               0.3
 (Enter /home/eric/data/opt/apps/gaussian/g16A.03/g16/l303.exe)
 DipDrv:  MaxL=1.
 Leave Link  303 at Sun Jun 29 23:44:19 2025, MaxMem=   104857600 cpu:               0.0 elap:               0.0
 (Enter /home/eric/data/opt/apps/gaussian/g16A.03/g16/l401.exe)
 Initial guess from the checkpoint file:  "dvb_gopt_qchem_unconverged.chk"
 B after Tr=     0.000000    0.000000    0.000000
         Rot=    0.999999   -0.000000   -0.000000   -0.001073 Ang=  -0.12 deg.
 Guess basis will be translated and rotated to current coordinates.
 JPrj=2 DoOrth=T DoCkMO=T.
 Initial guess orbital symmetries:
       Occupied  (BU) (AG) (BU) (AG) (BU) (AG) (BU) (AG) (BU) (AG)
                 (AG) (BU) (AG) (BU) (BU) (AG) (AG) (BU) (AG) (AG)
                 (BU) (BU) (BU) (AG) (BU) (BU) (AG) (AU) (BU) (AG)
                 (AG) (BG) (AU) (BG) (BG)
       Virtual   (AU) (AU) (BG) (AU) (BG) (AG) (BU) (BU) (AG) (BU)
                 (AG) (BU) (AG) (BU) (AG) (AG) (BU) (AG) (BU) (BU)
                 (AG) (AG) (BU) (AG) (BU)
 The electronic state of the initial guess is 1-AG.
 Leave Link  401 at Sun Jun 29 23:44:19 2025, MaxMem=   104857600 cpu:               0.0 elap:               0.0
 (Enter /home/eric/data/opt/apps/gaussian/g16A.03/g16/l502.exe)
 Keep R1 ints in memory in symmetry-blocked form, NReq=2566258.
 FoFCou: FMM=F IPFlag=           0 FMFlag=           0 FMFlg1=           0
         NFxFlg=           0 DoJE=F BraDBF=F KetDBF=F FulRan=T
         wScrn=  0.000000 ICntrl=       600 IOpCl=  0 I1Cent=           0 NGrid=           0
         NMat0=    1 NMatS0=   1830 NMatT0=    0 NMatD0=    1 NMtDS0=    0 NMtDT0=    0
 Petite list used in FoFCou.
 Closed shell SCF:
 Using DIIS extrapolation, IDIIS=  1040.
 NGot=   104857600 LenX=   104337711 LenY=   104333670
 Requested convergence on RMS density matrix=1.00D-08 within 128 cycles.
 Requested convergence on MAX density matrix=1.00D-06.
 Requested convergence on             energy=1.00D-06.
 No special actions if energy rises.

 Cycle   1  Pass 1  IDiag  1:
 E= -382.300922901577    
 DIIS: error= 2.86D-04 at cycle   1 NSaved=   1.
 NSaved= 1 IEnMin= 1 EnMin= -382.300922901577     IErMin= 1 ErrMin= 2.86D-04
 ErrMax= 2.86D-04  0.00D+00 EMaxC= 1.00D-01 BMatC= 7.38D-06 BMatP= 7.38D-06
 IDIUse=3 WtCom= 9.97D-01 WtEn= 2.86D-03
 Coeff-Com:  0.100D+01
 Coeff-En:   0.100D+01
 Coeff:      0.100D+01
 Gap=     0.209 Goal=   None    Shift=    0.000
 RMSDP=9.74D-05 MaxDP=1.02D-03              OVMax= 4.74D-04

 Cycle   2  Pass 1  IDiag  1:
 E= -382.300937956885     Delta-E=       -0.000015055308 Rises=F Damp=F
 DIIS: error= 2.50D-05 at cycle   2 NSaved=   2.
 NSaved= 2 IEnMin= 2 EnMin= -382.300937956885     IErMin= 2 ErrMin= 2.50D-05
 ErrMax= 2.50D-05  0.00D+00 EMaxC= 1.00D-01 BMatC= 5.46D-08 BMatP= 7.38D-06
 IDIUse=1 WtCom= 1.00D+00 WtEn= 0.00D+00
 Coeff-Com: -0.688D-01 0.107D+01
 Coeff:     -0.688D-01 0.107D+01
 Gap=     0.209 Goal=   None    Shift=    0.000
 RMSDP=1.03D-05 MaxDP=9.36D-05 DE=-1.51D-05 OVMax= 6.58D-05

 Cycle   3  Pass 1  IDiag  1:
 E= -382.300938046585     Delta-E=       -0.000000089700 Rises=F Damp=F
 DIIS: error= 2.01D-05 at cycle   3 NSaved=   3.
 NSaved= 3 IEnMin= 3 EnMin= -382.300938046585     IErMin= 3 ErrMin= 2.01D-05
 ErrMax= 2.01D-05  0.00D+00 EMaxC= 1.00D-01 BMatC= 2.06D-08 BMatP= 5.46D-08
 IDIUse=1 WtCom= 1.00D+00 WtEn= 0.00D+00
 Coeff-Com: -0.356D-01 0.512D+00 0.523D+00
 Coeff:     -0.356D-01 0.512D+00 0.523D+00
 Gap=     0.209 Goal=   None    Shift=    0.000
 RMSDP=3.58D-06 MaxDP=6.30D-05 DE=-8.97D-08 OVMax= 3.10D-05

 Cycle   4  Pass 1  IDiag  1:
 E= -382.300938070333     Delta-E=       -0.000000023748 Rises=F Damp=F
 DIIS: error= 6.16D-06 at cycle   4 NSaved=   4.
 NSaved= 4 IEnMin= 4 EnMin= -382.300938070333     IErMin= 4 ErrMin= 6.16D-06
 ErrMax= 6.16D-06  0.00D+00 EMaxC= 1.00D-01 BMatC= 1.86D-09 BMatP= 2.06D-08
 IDIUse=1 WtCom= 1.00D+00 WtEn= 0.00D+00
 Coeff-Com: -0.106D-01 0.143D+00 0.260D+00 0.608D+00
 Coeff:     -0.106D-01 0.143D+00 0.260D+00 0.608D+00
 Gap=     0.209 Goal=   None    Shift=    0.000
 RMSDP=1.20D-06 MaxDP=2.84D-05 DE=-2.37D-08 OVMax= 2.18D-05

 Cycle   5  Pass 1  IDiag  1:
 E= -382.300938072250     Delta-E=       -0.000000001917 Rises=F Damp=F
 DIIS: error= 3.16D-06 at cycle   5 NSaved=   5.
 NSaved= 5 IEnMin= 5 EnMin= -382.300938072250     IErMin= 5 ErrMin= 3.16D-06
 ErrMax= 3.16D-06  0.00D+00 EMaxC= 1.00D-01 BMatC= 3.26D-10 BMatP= 1.86D-09
 IDIUse=1 WtCom= 1.00D+00 WtEn= 0.00D+00
 Coeff-Com: -0.140D-02 0.148D-01 0.793D-01 0.351D+00 0.556D+00
 Coeff:     -0.140D-02 0.148D-01 0.793D-01 0.351D+00 0.556D+00
 Gap=     0.209 Goal=   None    Shift=    0.000
 RMSDP=4.43D-07 MaxDP=9.52D-06 DE=-1.92D-09 OVMax= 9.95D-06

 Cycle   6  Pass 1  IDiag  1:
 E= -382.300938072677     Delta-E=       -0.000000000428 Rises=F Damp=F
 DIIS: error= 6.05D-07 at cycle   6 NSaved=   6.
 NSaved= 6 IEnMin= 6 EnMin= -382.300938072677     IErMin= 6 ErrMin= 6.05D-07
 ErrMax= 6.05D-07  0.00D+00 EMaxC= 1.00D-01 BMatC= 1.65D-11 BMatP= 3.26D-10
 IDIUse=1 WtCom= 1.00D+00 WtEn= 0.00D+00
 Coeff-Com: -0.413D-04-0.136D-02 0.234D-01 0.136D+00 0.280D+00 0.562D+00
 Coeff:     -0.413D-04-0.136D-02 0.234D-01 0.136D+00 0.280D+00 0.562D+00
 Gap=     0.209 Goal=   None    Shift=    0.000
 RMSDP=9.65D-08 MaxDP=1.44D-06 DE=-4.28D-10 OVMax= 1.89D-07

 Cycle   7  Pass 1  IDiag  1:
 E= -382.300938072697     Delta-E=       -0.000000000020 Rises=F Damp=F
 DIIS: error= 9.68D-08 at cycle   7 NSaved=   7.
 NSaved= 7 IEnMin= 7 EnMin= -382.300938072697     IErMin= 7 ErrMin= 9.68D-08
 ErrMax= 9.68D-08  0.00D+00 EMaxC= 1.00D-01 BMatC= 6.53D-13 BMatP= 1.65D-11
 IDIUse=1 WtCom= 1.00D+00 WtEn= 0.00D+00
 Coeff-Com:  0.124D-03-0.209D-02 0.242D-02 0.233D-01 0.655D-01 0.218D+00
 Coeff-Com:  0.693D+00
 Coeff:      0.124D-03-0.209D-02 0.242D-02 0.233D-01 0.655D-01 0.218D+00
 Coeff:      0.693D+00
 Gap=     0.209 Goal=   None    Shift=    0.000
 RMSDP=2.02D-08 MaxDP=2.11D-07 DE=-2.00D-11 OVMax= 2.85D-08

 Cycle   8  Pass 1  IDiag  1:
 E= -382.300938072698     Delta-E=       -0.000000000000 Rises=F Damp=F
 DIIS: error= 8.96D-09 at cycle   8 NSaved=   8.
 NSaved= 8 IEnMin= 8 EnMin= -382.300938072698     IErMin= 8 ErrMin= 8.96D-09
 ErrMax= 8.96D-09  0.00D+00 EMaxC= 1.00D-01 BMatC= 6.29D-15 BMatP= 6.53D-13
 IDIUse=1 WtCom= 1.00D+00 WtEn= 0.00D+00
 Coeff-Com:  0.239D-04-0.332D-03-0.350D-03-0.481D-03 0.175D-02 0.204D-01
 Coeff-Com:  0.119D+00 0.860D+00
 Coeff:      0.239D-04-0.332D-03-0.350D-03-0.481D-03 0.175D-02 0.204D-01
 Coeff:      0.119D+00 0.860D+00
 Gap=     0.209 Goal=   None    Shift=    0.000
 RMSDP=2.81D-09 MaxDP=3.12D-08 DE=-3.41D-13 OVMax= 4.49D-08

 SCF Done:  E(RB3LYP) =  -382.300938073     A.U. after    8 cycles
            NFock=  8  Conv=0.28D-08     -V/T= 2.0167
 KE= 3.760178113281D+02 PE=-1.784163458052D+03 EE= 5.761039220016D+02
 Leave Link  502 at Sun Jun 29 23:44:22 2025, MaxMem=   104857600 cpu:               3.0 elap:               3.1
 (Enter /home/eric/data/opt/apps/gaussian/g16A.03/g16/l701.exe)
 ... and contract with generalized density number  0.
 Compute integral first derivatives.
 Leave Link  701 at Sun Jun 29 23:44:22 2025, MaxMem=   104857600 cpu:               0.0 elap:               0.0
 (Enter /home/eric/data/opt/apps/gaussian/g16A.03/g16/l702.exe)
 L702 exits ... SP integral derivatives will be done elsewhere.
 Leave Link  702 at Sun Jun 29 23:44:22 2025, MaxMem=   104857600 cpu:               0.0 elap:               0.0
 (Enter /home/eric/data/opt/apps/gaussian/g16A.03/g16/l703.exe)
 Integral derivatives from FoFJK, PRISM(SPDF).
 Compute integral first derivatives, UseDBF=F ICtDFT=           0.
 Calling FoFJK, ICntrl=      2127 FMM=F ISym2X=1 I1Cent= 0 IOpClX= 0 NMat=1 NMatS=1 NMatT=0.
 FoFJK:  IHMeth= 1 ICntrl=    2127 DoSepK=F KAlg= 0 I1Cent=           0 FoldK=F
 IRaf=         0 NMat=       1 IRICut=       1 DoRegI=T DoRafI=F ISym2E= 1 IDoP0=0 IntGTp=1.
 FoFCou: FMM=F IPFlag=           0 FMFlag=      100000 FMFlg1=         800
         NFxFlg=           0 DoJE=F BraDBF=F KetDBF=F FulRan=T
         wScrn=  0.000000 ICntrl=      2127 IOpCl=  0 I1Cent=           0 NGrid=           0
         NMat0=    1 NMatS0=      1 NMatT0=    0 NMatD0=    1 NMtDS0=    0 NMtDT0=    0
 Petite list used in FoFCou.
 Leave Link  703 at Sun Jun 29 23:44:23 2025, MaxMem=   104857600 cpu:               0.9 elap:               0.9
 (Enter /home/eric/data/opt/apps/gaussian/g16A.03/g16/l716.exe)
 Dipole        =-9.76996262D-15-9.54791801D-15 0.00000000D+00
 ***** Axes restored to original set *****
 -------------------------------------------------------------------
 Center     Atomic                   Forces (Hartrees/Bohr)
 Number     Number              X              Y              Z
 -------------------------------------------------------------------
      1        6           0.008148441   -0.048809961   -0.000000000
      2        6           0.018163008    0.006141759   -0.000000000
      3        6           0.018853399   -0.001740854   -0.000000000
      4        6          -0.008148441    0.048809961   -0.000000000
      5        6          -0.018163008   -0.006141759   -0.000000000
      6        6          -0.018853399    0.001740854   -0.000000000
      7        1          -0.001255846   -0.000184627   -0.000000000
      8        1          -0.001358936   -0.003117818   -0.000000000
      9        1           0.001255846    0.000184627   -0.000000000
     10        1           0.001358936    0.003117818   -0.000000000
     11        6          -0.004211632   -0.037962018   -0.000000000
     12        6           0.012377498    0.022280110   -0.000000000
     13        1          -0.000335194    0.002926696   -0.000000000
     14        1          -0.001976709   -0.001482070   -0.000000000
     15        1          -0.002648403    0.000031463   -0.000000000
     16        6           0.004211632    0.037962018   -0.000000000
     17        6          -0.012377498   -0.022280110   -0.000000000
     18        1           0.000335194   -0.002926696   -0.000000000
     19        1           0.001976709    0.001482070   -0.000000000
     20        1           0.002648403   -0.000031463   -0.000000000
 -------------------------------------------------------------------
 Cartesian Forces:  Max     0.048809961 RMS     0.013314579
 Leave Link  716 at Sun Jun 29 23:44:23 2025, MaxMem=   104857600 cpu:               0.0 elap:               0.0
 (Enter /home/eric/data/opt/apps/gaussian/g16A.03/g16/l103.exe)

 GradGradGradGradGradGradGradGradGradGradGradGradGradGradGradGradGradGrad
 Berny optimization.
 Using GEDIIS/GDIIS optimizer.
 FormGI is forming the generalized inverse of G from B-inverse, IUseBI=4.
 Internal  Forces:  Max     0.023990149 RMS     0.007692692
 Search for a local minimum.
 Step number   2 out of a maximum of    5
 All quantities printed in internal units (Hartrees-Bohrs-Radians)
 RMS Force = .76927D-02 SwitMx=.10000D-02 MixMth= 1
 Mixed Optimization -- RFO/linear search
 Update second derivatives using D2CorX and points    1    2
 DE= -7.02D-04 DEPred=-7.06D-04 R= 9.95D-01
 TightC=F SS=  1.41D+00  RLast= 1.00D-02 DXNew= 1.6818D-02 3.0000D-02
 Trust test= 9.95D-01 RLast= 1.00D-02 DXMaxT set to 5.00D-02
 ITU=  1  0
 Use linear search instead of GDIIS.
     Eigenvalues ---    0.00235   0.00235   0.01513   0.01617   0.01760
     Eigenvalues ---    0.01760   0.02154   0.02155   0.02156   0.02156
     Eigenvalues ---    0.02157   0.02158   0.02158   0.03069   0.03069
     Eigenvalues ---    0.03069   0.03069   0.15378   0.16000   0.16000
     Eigenvalues ---    0.16000   0.16000   0.16000   0.16000   0.16000
     Eigenvalues ---    0.16000   0.16103   0.21987   0.22000   0.22643
     Eigenvalues ---    0.22980   0.23237   0.24872   0.25000   0.28505
     Eigenvalues ---    0.29785   0.33718   0.33719   0.33720   0.33805
     Eigenvalues ---    0.33862   0.33875   0.33875   0.33875   0.33875
     Eigenvalues ---    0.34360   0.42142   0.42496   0.45939   0.46472
     Eigenvalues ---    0.46473   0.53828   0.60481   0.64229
 RFO step:  Lambda=-1.53545292D-03 EMin= 2.34697426D-03
 Quartic linear search produced a step of  2.00000.
 Maximum step size (   0.050) exceeded in Quadratic search.
    -- Step size scaled by   0.699
 Iteration  1 RMS(Cart)=  0.01173857 RMS(Int)=  0.00005015
 Iteration  2 RMS(Cart)=  0.00008826 RMS(Int)=  0.00000000
 Iteration  3 RMS(Cart)=  0.00000000 RMS(Int)=  0.00000000
[...]
 ! D21   D(3,4,5,6)              0.0            -DE/DX =    0.0                 !
 ! D22   D(3,4,5,9)            180.0            -DE/DX =    0.0                 !
 ! D23   D(11,4,5,6)           180.0            -DE/DX =    0.0                 !
 ! D24   D(11,4,5,9)             0.0            -DE/DX =    0.0                 !
 ! D25   D(3,4,11,12)            0.0            -DE/DX =    0.0                 !
 ! D26   D(3,4,11,13)          180.0            -DE/DX =    0.0                 !
 ! D27   D(5,4,11,12)          180.0            -DE/DX =    0.0                 !
 ! D28   D(5,4,11,13)            0.0            -DE/DX =    0.0                 !
 ! D29   D(4,5,6,1)              0.0            -DE/DX =    0.0                 !
 ! D30   D(4,5,6,10)           180.0            -DE/DX =    0.0                 !
 ! D31   D(9,5,6,1)            180.0            -DE/DX =    0.0                 !
 ! D32   D(9,5,6,10)             0.0            -DE/DX =    0.0                 !
 ! D33   D(4,11,12,14)         180.0            -DE/DX =    0.0                 !
 ! D34   D(4,11,12,15)           0.0            -DE/DX =    0.0                 !
 ! D35   D(13,11,12,14)          0.0            -DE/DX =    0.0                 !
 ! D36   D(13,11,12,15)        180.0            -DE/DX =    0.0                 !
 ! D37   D(1,16,17,19)         180.0            -DE/DX =    0.0                 !
 ! D38   D(1,16,17,20)           0.0            -DE/DX =    0.0                 !
 ! D39   D(18,16,17,19)          0.0            -DE/DX =    0.0                 !
 ! D40   D(18,16,17,20)        180.0            -DE/DX =    0.0                 !
 --------------------------------------------------------------------------------
 Lowest energy point so far.  Saving SCF results.
 Largest change from initial coordinates is atom   19       0.270 Angstoms.
 GradGradGradGradGradGradGradGradGradGradGradGradGradGradGradGradGradGrad

 Leave Link  103 at Sun Jun 29 23:44:37 2025, MaxMem=   104857600 cpu:               0.0 elap:               0.0
 (Enter /home/eric/data/opt/apps/gaussian/g16A.03/g16/l202.exe)
                          Input orientation:                          
 ---------------------------------------------------------------------
 Center     Atomic      Atomic             Coordinates (Angstroms)
 Number     Number       Type             X           Y           Z
 ---------------------------------------------------------------------
      1          6           0        0.243480   -1.415068    0.000000
      2          6           0        1.317246   -0.481191    0.000000
      3          6           0        1.081941    0.901218    0.000000
      4          6           0       -0.243480    1.415068    0.000000
      5          6           0       -1.317246    0.481191    0.000000
      6          6           0       -1.081941   -0.901218    0.000000
      7          1           0        2.349702   -0.856540    0.000000
      8          1           0        1.933079    1.594862    0.000000
      9          1           0       -2.349702    0.856540    0.000000
     10          1           0       -1.933079   -1.594862    0.000000
     11          6           0       -0.546921    2.876646    0.000000
     12          6           0        0.352166    3.875866    0.000000
     13          1           0       -1.619352    3.123209    0.000000
     14          1           0        0.038686    4.926195    0.000000
     15          1           0        1.433140    3.692516    0.000000
     16          6           0        0.546921   -2.876646    0.000000
     17          6           0       -0.352166   -3.875866    0.000000
     18          1           0        1.619352   -3.123209    0.000000
     19          1           0       -0.038686   -4.926195    0.000000
     20          1           0       -1.433140   -3.692516    0.000000
 ---------------------------------------------------------------------
                    Distance matrix (angstroms):
                    1          2          3          4          5
     1  C    0.000000
     2  C    1.423061   0.000000
     3  C    2.463372   1.402293   0.000000
     4  C    2.871725   2.455945   1.421542   0.000000
     5  C    2.455945   2.804770   2.435677   1.423061   0.000000
     6  C    1.421542   2.435677   2.816232   2.463372   1.402293
     7  H    2.179020   1.098568   2.167241   3.447433   3.903336
     8  H    3.451729   2.165467   1.097989   2.183972   3.435823
     9  H    3.447433   3.903336   3.431934   2.179020   1.098568
    10  H    2.183972   3.435823   3.914175   3.451729   2.165467
    11  C    4.363891   3.840598   2.560372   1.492745   2.516268
    12  C    5.292050   4.462659   3.062858   2.531860   3.782955
    13  H    4.905721   4.649227   3.497746   2.193346   2.659234
    14  H    6.344569   5.556486   4.157982   3.522446   4.647215
    15  H    5.244302   4.175316   2.813304   2.828041   4.228147
    16  C    1.492745   2.516268   3.815561   4.363891   3.840598
    17  C    2.531860   3.782955   4.987704   5.292050   4.462659
    18  H    2.193346   2.659234   4.060151   4.905721   4.649227
    19  H    3.522446   4.647215   5.934184   6.344569   5.556486
    20  H    2.828041   4.228147   5.237177   5.244302   4.175316
                    6          7          8          9         10
     6  C    0.000000
     7  H    3.431934   0.000000
     8  H    3.914175   2.486553   0.000000
     9  H    2.167241   5.001904   4.345956   0.000000
    10  H    1.097989   4.345956   5.012138   2.486553   0.000000
    11  C    3.815561   4.725156   2.791661   2.707554   4.681434
    12  C    4.987704   5.136712   2.775295   4.051718   5.928846
    13  H    4.060151   5.620657   3.867249   2.381428   4.728490
    14  H    5.934184   6.227424   3.832297   4.718738   6.812639
    15  H    5.237177   4.640473   2.156406   4.727859   6.267998
    16  C    2.560372   2.707554   4.681434   4.725156   2.791661
    17  C    3.062858   4.051718   5.928846   5.136712   2.775295
    18  H    3.497746   2.381428   4.728490   5.620657   3.867249
    19  H    4.157982   4.718738   6.812639   6.227424   3.832297
    20  H    2.813304   4.727859   6.267998   4.640473   2.156406
                   11         12         13         14         15
    11  C    0.000000
    12  C    1.344172   0.000000
    13  H    1.100409   2.110303   0.000000
    14  H    2.131569   1.096112   2.449459   0.000000
    15  H    2.141561   1.096412   3.105127   1.861844   0.000000
    16  C    5.856352   6.755320   6.378949   7.819375   6.628670
    17  C    6.755320   7.783664   7.112862   8.810734   7.776099
    18  H    6.378949   7.112862   7.036116   8.203133   6.818268
    19  H    7.819375   8.810734   8.203133   9.852693   8.743480
    20  H    6.628670   7.776099   6.818268   8.743480   7.921757
                   16         17         18         19         20
    16  C    0.000000
    17  C    1.344172   0.000000
    18  H    1.100409   2.110303   0.000000
    19  H    2.131569   1.096112   2.449459   0.000000
    20  H    2.141561   1.096412   3.105127   1.861844   0.000000
 Stoichiometry    C10H10
 Framework group  C2H[SGH(C10H10)]
 Deg. of freedom    19
 Full point group                 C2H     NOp   4
 RotChk:  IX=0 Diff= 1.52D-16
 Largest Abelian subgroup         C2H     NOp   4
 Largest concise Abelian subgroup C2      NOp   2
                         Standard orientation:                         
 ---------------------------------------------------------------------
 Center     Atomic      Atomic             Coordinates (Angstroms)
 Number     Number       Type             X           Y           Z
 ---------------------------------------------------------------------
      1          6           0        1.231373    0.738526    0.000000
      2          6           0       -0.027496    1.402115    0.000000
      3          6           0       -1.231373    0.683016    0.000000
      4          6           0       -1.231373   -0.738526    0.000000
      5          6           0        0.027496   -1.402115    0.000000
      6          6           0        1.231373   -0.683016    0.000000
      7          1           0       -0.050733    2.500437    0.000000
      8          1           0       -2.185779    1.225868    0.000000
      9          1           0        0.050733   -2.500437    0.000000
     10          1           0        2.185779   -1.225868    0.000000
     11          6           0       -2.484436   -1.549772    0.000000
     12          6           0       -3.741087   -1.072670    0.000000
     13          1           0       -2.326671   -2.638813    0.000000
     14          1           0       -4.607081   -1.744620    0.000000
     15          1           0       -3.960878    0.001486    0.000000
     16          6           0        2.484436    1.549772    0.000000
     17          6           0        3.741087    1.072670    0.000000
     18          1           0        2.326671    2.638813    0.000000
     19          1           0        4.607081    1.744620    0.000000
     20          1           0        3.960878   -0.001486    0.000000
 ---------------------------------------------------------------------
 Rotational constants (GHZ):           4.6196248           0.6876677           0.5985664
 Leave Link  202 at Sun Jun 29 23:44:37 2025, MaxMem=   104857600 cpu:               0.0 elap:               0.0
 (Enter /home/eric/data/opt/apps/gaussian/g16A.03/g16/l601.exe)
 Copying SCF densities to generalized density rwf, IOpCl= 0 IROHF=0.

 **********************************************************************

            Population analysis using the SCF density.

 **********************************************************************

 Orbital symmetries:
       Occupied  (BU) (AG) (BU) (AG) (BU) (AG) (BU) (AG) (BU) (AG)
                 (AG) (BU) (AG) (BU) (BU) (AG) (AG) (BU) (AG) (AG)
                 (BU) (BU) (BU) (AG) (BU) (BU) (AG) (AU) (BU) (AG)
                 (AG) (BG) (AU) (BG) (BG)
       Virtual   (AU) (AU) (BG) (AU) (BG) (AG) (BU) (AG) (BU) (AG)
                 (BU) (BU) (AG) (BU) (AG) (AG) (BU) (AG) (BU) (BU)
                 (AG) (AG) (BU) (AG) (BU)
 The electronic state is 1-AG.
 Alpha  occ. eigenvalues --  -10.02011 -10.02006 -10.00808 -10.00808 -10.00668
 Alpha  occ. eigenvalues --  -10.00668 -10.00597 -10.00583  -9.99223  -9.99223
 Alpha  occ. eigenvalues --   -0.80959  -0.75481  -0.71817  -0.69967  -0.66709
 Alpha  occ. eigenvalues --   -0.58907  -0.55907  -0.53186  -0.50976  -0.45775
 Alpha  occ. eigenvalues --   -0.43988  -0.41067  -0.39796  -0.39602  -0.37380
 Alpha  occ. eigenvalues --   -0.35087  -0.34718  -0.32465  -0.31156  -0.29339
 Alpha  occ. eigenvalues --   -0.28724  -0.26418  -0.21241  -0.19496  -0.15254
 Alpha virt. eigenvalues --    0.03699   0.09041   0.11054   0.18291   0.27281
 Alpha virt. eigenvalues --    0.33416   0.34051   0.38083   0.38171   0.41031
 Alpha virt. eigenvalues --    0.41124   0.42696   0.44053   0.45396   0.47875
 Alpha virt. eigenvalues --    0.52612   0.54576   0.57641   0.59950   0.62546
 Alpha virt. eigenvalues --    0.64169   0.68277   0.71796   0.77982   0.79508
          Condensed to atoms (all electrons):
               1          2          3          4          5          6
     1  C    4.778192   0.488491  -0.026952  -0.009771  -0.027159   0.488147
     2  C    0.488491   4.815058   0.509098  -0.027159  -0.011026  -0.030624
     3  C   -0.026952   0.509098   4.810983   0.488147  -0.030624  -0.010471
     4  C   -0.009771  -0.027159   0.488147   4.778192   0.488491  -0.026952
     5  C   -0.027159  -0.011026  -0.030624   0.488491   4.815058   0.509098
     6  C    0.488147  -0.030624  -0.010471  -0.026952   0.509098   4.810983
     7  H   -0.025288   0.387906  -0.025208   0.001335   0.000039   0.001339
     8  H    0.001325  -0.025156   0.387821  -0.024622   0.001344   0.000032
     9  H    0.001335   0.000039   0.001339  -0.025288   0.387906  -0.025208
    10  H   -0.024622   0.001344   0.000032   0.001325  -0.025156   0.387821
    11  C    0.000016   0.000757  -0.024320   0.413506  -0.028876   0.000822
    12  C    0.000000   0.000016  -0.004220  -0.024202   0.000691  -0.000007
    13  H   -0.000001  -0.000017   0.001097  -0.026060  -0.003972   0.000022
    14  H    0.000000   0.000000   0.000021   0.001333  -0.000016   0.000000
    15  H   -0.000000  -0.000012  -0.000661  -0.003652   0.000013  -0.000000
    16  C    0.413506  -0.028876   0.000822   0.000016   0.000757  -0.024320
    17  C   -0.024202   0.000691  -0.000007   0.000000   0.000016  -0.004220
    18  H   -0.026060  -0.003972   0.000022  -0.000001  -0.000017   0.001097
    19  H    0.001333  -0.000016   0.000000   0.000000   0.000000   0.000021
    20  H   -0.003652   0.000013  -0.000000  -0.000000  -0.000012  -0.000661
               7          8          9         10         11         12
     1  C   -0.025288   0.001325   0.001335  -0.024622   0.000016   0.000000
     2  C    0.387906  -0.025156   0.000039   0.001344   0.000757   0.000016
     3  C   -0.025208   0.387821   0.001339   0.000032  -0.024320  -0.004220
     4  C    0.001335  -0.024622  -0.025288   0.001325   0.413506  -0.024202
     5  C    0.000039   0.001344   0.387906  -0.025156  -0.028876   0.000691
     6  C    0.001339   0.000032  -0.025208   0.387821   0.000822  -0.000007
     7  H    0.588906  -0.003800   0.000002  -0.000034  -0.000014   0.000000
     8  H   -0.003800   0.587250  -0.000034   0.000002  -0.003086  -0.000709
     9  H    0.000002  -0.000034   0.588906  -0.003800  -0.003891   0.000029
    10  H   -0.000034   0.000002  -0.003800   0.587250  -0.000015   0.000000
    11  C   -0.000014  -0.003086  -0.003891  -0.000015   4.797500   0.585942
    12  C    0.000000  -0.000709   0.000029   0.000000   0.585942   4.850168
    13  H    0.000000   0.000019   0.001030  -0.000002   0.386328  -0.027587
    14  H   -0.000000  -0.000017  -0.000002  -0.000000  -0.023965   0.388339
    15  H    0.000002   0.000589   0.000001   0.000000  -0.023990   0.385927
    16  C   -0.003891  -0.000015  -0.000014  -0.003086   0.000000  -0.000000
    17  C    0.000029   0.000000   0.000000  -0.000709  -0.000000  -0.000000
    18  H    0.001030  -0.000002   0.000000   0.000019  -0.000000   0.000000
    19  H   -0.000002  -0.000000  -0.000000  -0.000017  -0.000000   0.000000
    20  H    0.000001   0.000000   0.000002   0.000589   0.000000   0.000000
              13         14         15         16         17         18
     1  C   -0.000001   0.000000  -0.000000   0.413506  -0.024202  -0.026060
     2  C   -0.000017   0.000000  -0.000012  -0.028876   0.000691  -0.003972
     3  C    0.001097   0.000021  -0.000661   0.000822  -0.000007   0.000022
     4  C   -0.026060   0.001333  -0.003652   0.000016   0.000000  -0.000001
     5  C   -0.003972  -0.000016   0.000013   0.000757   0.000016  -0.000017
     6  C    0.000022   0.000000  -0.000000  -0.024320  -0.004220   0.001097
     7  H    0.000000  -0.000000   0.000002  -0.003891   0.000029   0.001030
     8  H    0.000019  -0.000017   0.000589  -0.000015   0.000000  -0.000002
     9  H    0.001030  -0.000002   0.000001  -0.000014   0.000000   0.000000
    10  H   -0.000002  -0.000000   0.000000  -0.003086  -0.000709   0.000019
    11  C    0.386328  -0.023965  -0.023990   0.000000  -0.000000  -0.000000
    12  C   -0.027587   0.388339   0.385927  -0.000000  -0.000000   0.000000
    13  H    0.595114  -0.005028   0.002049  -0.000000   0.000000   0.000000
    14  H   -0.005028   0.583618  -0.023649  -0.000000   0.000000  -0.000000
    15  H    0.002049  -0.023649   0.587243   0.000000   0.000000  -0.000000
    16  C   -0.000000  -0.000000   0.000000   4.797500   0.585942   0.386328
    17  C    0.000000   0.000000   0.000000   0.585942   4.850168  -0.027587
    18  H    0.000000  -0.000000  -0.000000   0.386328  -0.027587   0.595114
    19  H   -0.000000  -0.000000   0.000000  -0.023965   0.388339  -0.005028
    20  H   -0.000000   0.000000  -0.000000  -0.023990   0.385927   0.002049
              19         20
     1  C    0.001333  -0.003652
     2  C   -0.000016   0.000013
     3  C    0.000000  -0.000000
     4  C    0.000000  -0.000000
     5  C    0.000000  -0.000012
     6  C    0.000021  -0.000661
     7  H   -0.000002   0.000001
     8  H   -0.000000   0.000000
     9  H   -0.000000   0.000002
    10  H   -0.000017   0.000589
    11  C   -0.000000   0.000000
    12  C    0.000000   0.000000
    13  H   -0.000000  -0.000000
    14  H   -0.000000   0.000000
    15  H    0.000000  -0.000000
    16  C   -0.023965  -0.023990
    17  C    0.388339   0.385927
    18  H   -0.005028   0.002049
    19  H    0.583618  -0.023649
    20  H   -0.023649   0.587243
 Mulliken charges:
               1
     1  C   -0.004640
     2  C   -0.076556
     3  C   -0.076919
     4  C   -0.004640
     5  C   -0.076556
     6  C   -0.076919
     7  H    0.077647
     8  H    0.079057
     9  H    0.077647
    10  H    0.079057
    11  C   -0.076713
    12  C   -0.154389
    13  H    0.077008
    14  H    0.079366
    15  H    0.076139
    16  C   -0.076713
    17  C   -0.154389
    18  H    0.077008
    19  H    0.079366
    20  H    0.076139
 Sum of Mulliken charges =  -0.00000
 Mulliken charges with hydrogens summed into heavy atoms:
               1
     1  C   -0.004640
     2  C    0.001091
     3  C    0.002138
     4  C   -0.004640
     5  C    0.001091
     6  C    0.002138
    11  C    0.000295
    12  C    0.001116
    16  C    0.000295
    17  C    0.001116
 Electronic spatial extent (au):  <R**2>=           1856.0396
 Charge=             -0.0000 electrons
 Dipole moment (field-independent basis, Debye):
    X=             -0.0000    Y=             -0.0000    Z=              0.0000  Tot=              0.0000
 Quadrupole moment (field-independent basis, Debye-Ang):
   XX=            -50.7031   YY=            -50.2594   ZZ=            -58.6212
   XY=             -0.1144   XZ=              0.0000   YZ=              0.0000
 Traceless Quadrupole moment (field-independent basis, Debye-Ang):
   XX=              2.4915   YY=              2.9352   ZZ=             -5.4266
   XY=             -0.1144   XZ=              0.0000   YZ=              0.0000
 Octapole moment (field-independent basis, Debye-Ang**2):
  XXX=             -0.0000  YYY=             -0.0000  ZZZ=              0.0000  XYY=             -0.0000
  XXY=             -0.0000  XXZ=              0.0000  XZZ=             -0.0000  YZZ=              0.0000
  YYZ=              0.0000  XYZ=              0.0000
 Hexadecapole moment (field-independent basis, Debye-Ang**3):
 XXXX=          -1667.2223 YYYY=           -526.8862 ZZZZ=            -47.6064 XXXY=           -250.7026
 XXXZ=              0.0000 YYYX=           -255.4909 YYYZ=              0.0000 ZZZX=              0.0000
 ZZZY=              0.0000 XXYY=           -362.4793 XXZZ=           -328.0280 YYZZ=           -110.3859
 XXYZ=              0.0000 YYXZ=              0.0000 ZZXY=            -98.8182
 N-N= 4.463034195749D+02 E-N=-1.777227853714D+03  KE= 3.758562147525D+02
 Symmetry AG   KE= 1.814098328101D+02
 Symmetry BG   KE= 7.823562993489D+00
 Symmetry AU   KE= 4.697034830477D+00
 Symmetry BU   KE= 1.819257841184D+02
 No NMR shielding tensors so no spin-rotation constants.
 Leave Link  601 at Sun Jun 29 23:44:37 2025, MaxMem=   104857600 cpu:               0.0 elap:               0.0
 (Enter /home/eric/data/opt/apps/gaussian/g16A.03/g16/l9999.exe)


 LENDING MONEY TO FRIENDS CAUSES THEM TO LOSE THEIR MEMORIES.

    --  PETER'S THEORY OF RECIPROCAL INHIBITION OF FISCAL RECALL
 Error termination request processed by link 9999.
 Error termination via Lnk1e in /home/eric/data/opt/apps/gaussian/g16A.03/g16/l9999.exe at Sun Jun 29 23:44:37 2025.
 Job cpu time:       0 days  0 hours  0 minutes 23.5 seconds.
 Elapsed time:       0 days  0 hours  0 minutes 23.3 seconds.
 File lengths (MBytes):  RWF=      6 Int=      0 D2E=      0 Chk=      2 Scr=      1
