 Entering Gaussian System, Link 0=g16
 Initial command:
 /home/eric/data/opt/apps/gaussian/g16A.03/g16/l1.exe "/tmp/Gau-2172694.inp" -scrdir="/tmp/"
 Entering Link 1 = /home/eric/data/opt/apps/gaussian/g16A.03/g16/l1.exe PID=   2172766.
  
 Copyright (c) 1988,1990,1992,1993,1995,1998,2003,2009,2016,
            Gaussian, Inc.  All Rights Reserved.
  
 This is part of the Gaussian(R) 16 program.  It is based on
 the Gaussian(R) 09 system (copyright 2009, Gaussian, Inc.),
 the Gaussian(R) 03 system (copyright 2003, Gaussian, Inc.),
 the Gaussian(R) 98 system (copyright 1998, Gaussian, Inc.),
 the Gaussian(R) 94 system (copyright 1995, Gaussian, Inc.),
 the Gaussian 92(TM) system (copyright 1992, Gaussian, Inc.),
 the Gaussian 90(TM) system (copyright 1990, Gaussian, Inc.),
 the Gaussian 88(TM) system (copyright 1988, Gaussian, Inc.),
 the Gaussian 86(TM) system (copyright 1986, Carnegie Mellon
 University), and the Gaussian 82(TM) system (copyright 1983,
 Carnegie Mellon University). Gaussian is a federally registered
 trademark of Gaussian, Inc.
  
 This software contains proprietary and confidential information,
 including trade secrets, belonging to Gaussian, Inc.
  
 This software is provided under written license and may be
 used, copied, transmitted, or stored only in accord with that
 written license.
  
 The following legend is applicable only to US Government
 contracts under FAR:
  
                    RESTRICTED RIGHTS LEGEND
  
 Use, reproduction and disclosure by the US Government is
 subject to restrictions as set forth in subparagraphs (a)
 and (c) of the Commercial Computer Software - Restricted
 Rights clause in FAR 52.227-19.
  
 Gaussian, Inc.
 340 Quinnipiac St., Bldg. 40, Wallingford CT 06492
  
  
 ---------------------------------------------------------------
 Warning -- This program may not be used in any manner that
 competes with the business of Gaussian, Inc. or will provide
 assistance to any competitor of Gaussian, Inc.  The licensee
 of this program is prohibited from giving any competitor of
 Gaussian, Inc. access to this program.  By using this program,
 the user acknowledges that Gaussian, Inc. is engaged in the
 business of creating and licensing software in the field of
 computational chemistry and represents and warrants to the
 licensee that it is not a competitor of Gaussian, Inc. and that
 it will not use this program in any manner prohibited above.
 ---------------------------------------------------------------
  

 Cite this work as:
 Gaussian 16, Revision A.03,
 M. J. Frisch, G. W. Trucks, H. B. Schlegel, G. E. Scuseria, 
 M. A. Robb, J. R. Cheeseman, G. Scalmani, V. Barone, 
 G. A. Petersson, H. Nakatsuji, X. Li, M. Caricato, A. V. Marenich, 
 J. Bloino, B. G. Janesko, R. Gomperts, B. Mennucci, H. P. Hratchian, 
 J. V. Ortiz, A. F. Izmaylov, J. L. Sonnenberg, D. Williams-Young, 
 F. Ding, F. Lipparini, F. Egidi, J. Goings, B. Peng, A. Petrone, 
 T. Henderson, D. Ranasinghe, V. G. Zakrzewski, J. Gao, N. Rega, 
 G. Zheng, W. Liang, M. Hada, M. Ehara, K. Toyota, R. Fukuda, 
 J. Hasegawa, M. Ishida, T. Nakajima, Y. Honda, O. Kitao, H. Nakai, 
 T. Vreven, K. Throssell, J. A. Montgomery, Jr., J. E. Peralta, 
 F. Ogliaro, M. J. Bearpark, J. J. Heyd, E. N. Brothers, K. N. Kudin, 
 V. N. Staroverov, T. A. Keith, R. Kobayashi, J. Normand, 
 K. Raghavachari, A. P. Rendell, J. C. Burant, S. S. Iyengar, 
 J. Tomasi, M. Cossi, J. M. Millam, M. Klene, C. Adamo, R. Cammi, 
 J. W. Ochterski, R. L. Martin, K. Morokuma, O. Farkas, 
 J. B. Foresman, and D. J. Fox, Gaussian, Inc., Wallingford CT, 2016.
 
 ******************************************
 Gaussian 16:  ES64L-G16RevA.03 25-Dec-2016
                29-Jun-2025 
 ******************************************
 %chk=dvb_gopt_qchem.chk
 -------------------
 #p b3lyp/sto-3g opt
 -------------------
 1/18=20,19=15,26=3,38=1/1,3;
 2/9=110,12=2,17=6,18=5,40=1/2;
 3/6=3,11=2,25=1,30=1,71=1,74=-5/1,2,3;
 4//1;
 5/5=2,38=5/2;
 6/7=2,8=2,9=2,10=2,28=1/1;
 7//1,2,3,16;
 1/18=20,19=15,26=3/3(2);
 2/9=110/2;
 99//99;
 2/9=110/2;
 3/6=3,11=2,25=1,30=1,71=1,74=-5/1,2,3;
 4/5=5,16=3,69=1/1;
 5/5=2,38=5/2;
 7//1,2,3,16;
 1/18=20,19=15,26=3/3(-5);
 2/9=110/2;
 6/7=2,8=2,9=2,10=2,19=2,28=1/1;
 99/9=1/99;
 Leave Link    1 at Sun Jun 29 23:44:04 2025, MaxMem=           0 cpu:               0.0 elap:               0.0
 (Enter /home/eric/data/opt/apps/gaussian/g16A.03/g16/l101.exe)
 ---
 dvb
 ---
 Symbolic Z-matrix:
 Charge =  0 Multiplicity = 1
 C                     0.27868  -1.36683   0. 
 C                     1.32303  -0.44174   0. 
 C                     1.04435   0.92485   0. 
 C                    -0.27868   1.36683   0. 
 C                    -1.32303   0.44174   0. 
 C                    -1.04435  -0.92485   0. 
 H                     2.36595  -0.79038   0. 
 H                     1.86746   1.65408   0. 
 H                    -2.36595   0.79038   0. 
 H                    -1.86746  -1.65408   0. 
 C                    -0.58659   2.8759    0. 
 C                     0.3635    3.80076   0. 
 H                    -1.65648   3.12394   0. 
 H                     0.1443    4.87693   0. 
 H                     1.43339   3.55272   0. 
 C                     0.58659  -2.8759    0. 
 C                    -0.3635   -3.80076   0. 
 H                     1.65648  -3.12394   0. 
 H                    -0.1443   -4.87693   0. 
 H                    -1.43339  -3.55272   0. 
 
 ITRead=  0  0  0  0  0  0  0  0  0  0  0  0  0  0  0  0  0  0  0  0
 MicOpt= -1 -1 -1 -1 -1 -1 -1 -1 -1 -1 -1 -1 -1 -1 -1 -1 -1 -1 -1 -1
 NAtoms=     20 NQM=       20 NQMF=       0 NMMI=      0 NMMIF=      0
                NMic=       0 NMicF=      0.
                    Isotopes and Nuclear Properties:
 (Nuclear quadrupole moments (NQMom) in fm**2, nuclear magnetic moments (NMagM)
  in nuclear magnetons)

  Atom         1           2           3           4           5           6           7           8           9          10
 IAtWgt=          12          12          12          12          12          12           1           1           1           1
 AtmWgt=  12.0000000  12.0000000  12.0000000  12.0000000  12.0000000  12.0000000   1.0078250   1.0078250   1.0078250   1.0078250
 NucSpn=           0           0           0           0           0           0           1           1           1           1
 AtZEff=  -0.0000000  -0.0000000  -0.0000000  -0.0000000  -0.0000000  -0.0000000  -0.0000000  -0.0000000  -0.0000000  -0.0000000
 NQMom=    0.0000000   0.0000000   0.0000000   0.0000000   0.0000000   0.0000000   0.0000000   0.0000000   0.0000000   0.0000000
 NMagM=    0.0000000   0.0000000   0.0000000   0.0000000   0.0000000   0.0000000   2.7928460   2.7928460   2.7928460   2.7928460
 AtZNuc=   6.0000000   6.0000000   6.0000000   6.0000000   6.0000000   6.0000000   1.0000000   1.0000000   1.0000000   1.0000000

  Atom        11          12          13          14          15          16          17          18          19          20
 IAtWgt=          12          12           1           1           1          12          12           1           1           1
 AtmWgt=  12.0000000  12.0000000   1.0078250   1.0078250   1.0078250  12.0000000  12.0000000   1.0078250   1.0078250   1.0078250
 NucSpn=           0           0           1           1           1           0           0           1           1           1
 AtZEff=  -0.0000000  -0.0000000  -0.0000000  -0.0000000  -0.0000000  -0.0000000  -0.0000000  -0.0000000  -0.0000000  -0.0000000
 NQMom=    0.0000000   0.0000000   0.0000000   0.0000000   0.0000000   0.0000000   0.0000000   0.0000000   0.0000000   0.0000000
 NMagM=    0.0000000   0.0000000   2.7928460   2.7928460   2.7928460   0.0000000   0.0000000   2.7928460   2.7928460   2.7928460
 AtZNuc=   6.0000000   6.0000000   1.0000000   1.0000000   1.0000000   6.0000000   6.0000000   1.0000000   1.0000000   1.0000000
 Leave Link  101 at Sun Jun 29 23:44:05 2025, MaxMem=   104857600 cpu:               0.0 elap:               0.1
 (Enter /home/eric/data/opt/apps/gaussian/g16A.03/g16/l103.exe)

 GradGradGradGradGradGradGradGradGradGradGradGradGradGradGradGradGradGrad
 Berny optimization.
 Initialization pass.
                           ----------------------------
                           !    Initial Parameters    !
                           ! (Angstroms and Degrees)  !
 --------------------------                            --------------------------
 ! Name  Definition              Value          Derivative Info.                !
 --------------------------------------------------------------------------------
 ! R1    R(1,2)                  1.3952         estimate D2E/DX2                !
 ! R2    R(1,6)                  1.3949         estimate D2E/DX2                !
 ! R3    R(1,16)                 1.5402         estimate D2E/DX2                !
 ! R4    R(2,3)                  1.3947         estimate D2E/DX2                !
 ! R5    R(2,7)                  1.0997         estimate D2E/DX2                !
 ! R6    R(3,4)                  1.3949         estimate D2E/DX2                !
 ! R7    R(3,8)                  1.0997         estimate D2E/DX2                !
 ! R8    R(4,5)                  1.3952         estimate D2E/DX2                !
 ! R9    R(4,11)                 1.5402         estimate D2E/DX2                !
 ! R10   R(5,6)                  1.3947         estimate D2E/DX2                !
 ! R11   R(5,9)                  1.0997         estimate D2E/DX2                !
 ! R12   R(6,10)                 1.0997         estimate D2E/DX2                !
 ! R13   R(11,12)                1.3259         estimate D2E/DX2                !
 ! R14   R(11,13)                1.0983         estimate D2E/DX2                !
 ! R15   R(12,14)                1.0983         estimate D2E/DX2                !
 ! R16   R(12,15)                1.0983         estimate D2E/DX2                !
 ! R17   R(16,17)                1.3259         estimate D2E/DX2                !
 ! R18   R(16,18)                1.0983         estimate D2E/DX2                !
 ! R19   R(17,19)                1.0983         estimate D2E/DX2                !
 ! R20   R(17,20)                1.0983         estimate D2E/DX2                !
 ! A1    A(2,1,6)              119.9923         estimate D2E/DX2                !
 ! A2    A(2,1,16)             120.0024         estimate D2E/DX2                !
 ! A3    A(6,1,16)             120.0053         estimate D2E/DX2                !
 ! A4    A(1,2,3)              120.0086         estimate D2E/DX2                !
 ! A5    A(1,2,7)              119.9808         estimate D2E/DX2                !
 ! A6    A(3,2,7)              120.0106         estimate D2E/DX2                !
 ! A7    A(2,3,4)              119.9991         estimate D2E/DX2                !
 ! A8    A(2,3,8)              120.0128         estimate D2E/DX2                !
 ! A9    A(4,3,8)              119.9881         estimate D2E/DX2                !
 ! A10   A(3,4,5)              119.9923         estimate D2E/DX2                !
 ! A11   A(3,4,11)             120.0053         estimate D2E/DX2                !
 ! A12   A(5,4,11)             120.0024         estimate D2E/DX2                !
 ! A13   A(4,5,6)              120.0086         estimate D2E/DX2                !
 ! A14   A(4,5,9)              119.9808         estimate D2E/DX2                !
 ! A15   A(6,5,9)              120.0106         estimate D2E/DX2                !
 ! A16   A(1,6,5)              119.9991         estimate D2E/DX2                !
 ! A17   A(1,6,10)             119.9881         estimate D2E/DX2                !
 ! A18   A(5,6,10)             120.0128         estimate D2E/DX2                !
 ! A19   A(4,11,12)            122.6967         estimate D2E/DX2                !
 ! A20   A(4,11,13)            114.5853         estimate D2E/DX2                !
 ! A21   A(12,11,13)           122.718          estimate D2E/DX2                !
 ! A22   A(11,12,14)           122.7159         estimate D2E/DX2                !
 ! A23   A(11,12,15)           122.718          estimate D2E/DX2                !
 ! A24   A(14,12,15)           114.5661         estimate D2E/DX2                !
 ! A25   A(1,16,17)            122.6967         estimate D2E/DX2                !
 ! A26   A(1,16,18)            114.5853         estimate D2E/DX2                !
 ! A27   A(17,16,18)           122.718          estimate D2E/DX2                !
 ! A28   A(16,17,19)           122.7159         estimate D2E/DX2                !
 ! A29   A(16,17,20)           122.718          estimate D2E/DX2                !
 ! A30   A(19,17,20)           114.5661         estimate D2E/DX2                !
 ! D1    D(6,1,2,3)              0.0            estimate D2E/DX2                !
 ! D2    D(6,1,2,7)            180.0            estimate D2E/DX2                !
 ! D3    D(16,1,2,3)           180.0            estimate D2E/DX2                !
 ! D4    D(16,1,2,7)             0.0            estimate D2E/DX2                !
 ! D5    D(2,1,6,5)              0.0            estimate D2E/DX2                !
 ! D6    D(2,1,6,10)           180.0            estimate D2E/DX2                !
 ! D7    D(16,1,6,5)           180.0            estimate D2E/DX2                !
 ! D8    D(16,1,6,10)            0.0            estimate D2E/DX2                !
 ! D9    D(2,1,16,17)          180.0            estimate D2E/DX2                !
 ! D10   D(2,1,16,18)            0.0            estimate D2E/DX2                !
 ! D11   D(6,1,16,17)            0.0            estimate D2E/DX2                !
 ! D12   D(6,1,16,18)          180.0            estimate D2E/DX2                !
 ! D13   D(1,2,3,4)              0.0            estimate D2E/DX2                !
 ! D14   D(1,2,3,8)            180.0            estimate D2E/DX2                !
 ! D15   D(7,2,3,4)            180.0            estimate D2E/DX2                !
 ! D16   D(7,2,3,8)              0.0            estimate D2E/DX2                !
 ! D17   D(2,3,4,5)              0.0            estimate D2E/DX2                !
 ! D18   D(2,3,4,11)           180.0            estimate D2E/DX2                !
 ! D19   D(8,3,4,5)            180.0            estimate D2E/DX2                !
 ! D20   D(8,3,4,11)             0.0            estimate D2E/DX2                !
 ! D21   D(3,4,5,6)              0.0            estimate D2E/DX2                !
 ! D22   D(3,4,5,9)            180.0            estimate D2E/DX2                !
 ! D23   D(11,4,5,6)           180.0            estimate D2E/DX2                !
 ! D24   D(11,4,5,9)             0.0            estimate D2E/DX2                !
 ! D25   D(3,4,11,12)            0.0            estimate D2E/DX2                !
 ! D26   D(3,4,11,13)          180.0            estimate D2E/DX2                !
 ! D27   D(5,4,11,12)          180.0            estimate D2E/DX2                !
 ! D28   D(5,4,11,13)            0.0            estimate D2E/DX2                !
 ! D29   D(4,5,6,1)              0.0            estimate D2E/DX2                !
 ! D30   D(4,5,6,10)           180.0            estimate D2E/DX2                !
 ! D31   D(9,5,6,1)            180.0            estimate D2E/DX2                !
 ! D32   D(9,5,6,10)             0.0            estimate D2E/DX2                !
 ! D33   D(4,11,12,14)         180.0            estimate D2E/DX2                !
 ! D34   D(4,11,12,15)           0.0            estimate D2E/DX2                !
 ! D35   D(13,11,12,14)          0.0            estimate D2E/DX2                !
 ! D36   D(13,11,12,15)        180.0            estimate D2E/DX2                !
 ! D37   D(1,16,17,19)         180.0            estimate D2E/DX2                !
 ! D38   D(1,16,17,20)           0.0            estimate D2E/DX2                !
 ! D39   D(18,16,17,19)          0.0            estimate D2E/DX2                !
 ! D40   D(18,16,17,20)        180.0            estimate D2E/DX2                !
 --------------------------------------------------------------------------------
 Trust Radius=3.00D-01 FncErr=1.00D-07 GrdErr=1.00D-06 EigMax=2.50D+02 EigMin=1.00D-04
 Number of steps in this run=    100 maximum allowed number of steps=    120.
 GradGradGradGradGradGradGradGradGradGradGradGradGradGradGradGradGradGrad

 Leave Link  103 at Sun Jun 29 23:44:05 2025, MaxMem=   104857600 cpu:               0.0 elap:               0.0
 (Enter /home/eric/data/opt/apps/gaussian/g16A.03/g16/l202.exe)
                          Input orientation:                          
 ---------------------------------------------------------------------
 Center     Atomic      Atomic             Coordinates (Angstroms)
 Number     Number       Type             X           Y           Z
 ---------------------------------------------------------------------
      1          6           0        0.278679   -1.366832    0.000000
      2          6           0        1.323030   -0.441736    0.000000
      3          6           0        1.044345    0.924850    0.000000
      4          6           0       -0.278679    1.366832    0.000000
      5          6           0       -1.323030    0.441736    0.000000
      6          6           0       -1.044345   -0.924850    0.000000
      7          1           0        2.365954   -0.790377    0.000000
      8          1           0        1.867461    1.654080    0.000000
      9          1           0       -2.365954    0.790377    0.000000
     10          1           0       -1.867461   -1.654080    0.000000
     11          6           0       -0.586592    2.875899    0.000000
     12          6           0        0.363502    3.800764    0.000000
     13          1           0       -1.656478    3.123943    0.000000
     14          1           0        0.144296    4.876932    0.000000
     15          1           0        1.433388    3.552720    0.000000
     16          6           0        0.586592   -2.875899    0.000000
     17          6           0       -0.363502   -3.800764    0.000000
     18          1           0        1.656478   -3.123943    0.000000
     19          1           0       -0.144296   -4.876932    0.000000
     20          1           0       -1.433388   -3.552720    0.000000
 ---------------------------------------------------------------------
                    Distance matrix (angstroms):
                    1          2          3          4          5
     1  C    0.000000
     2  C    1.395160   0.000000
     3  C    2.416205   1.394712   0.000000
     4  C    2.789904   2.415862   1.394899   0.000000
     5  C    2.415862   2.789652   2.416168   1.395160   0.000000
     6  C    1.394899   2.416168   2.789985   2.416205   1.394712
     7  H    2.165414   1.099655   2.165330   3.412864   3.889307
     8  H    3.413229   2.165375   1.099680   2.165278   3.413065
     9  H    3.412864   3.889307   3.412950   2.165414   1.099655
    10  H    2.165278   3.413065   3.889665   3.413229   2.165375
    11  C    4.330065   3.827971   2.542941   1.540161   2.543127
    12  C    5.168292   4.349655   2.955407   2.517226   3.758652
    13  H    4.889979   4.646669   3.482880   2.232883   2.702855
    14  H    6.245210   5.447719   4.053276   3.535494   4.671618
    15  H    5.053251   3.995980   2.656512   2.776560   4.156449
    16  C    1.540161   2.543127   3.828215   4.330065   3.827971
    17  C    2.517226   3.758652   4.930868   5.168292   4.349655
    18  H    2.232883   2.702855   4.094805   4.889979   4.646669
    19  H    3.535494   4.671618   5.922292   6.245210   5.447719
    20  H    2.776560   4.156449   5.117401   5.053251   3.995980
                    6          7          8          9         10
     6  C    0.000000
     7  H    3.412950   0.000000
     8  H    3.889665   2.494768   0.000000
     9  H    2.165330   4.988962   4.320624   0.000000
    10  H    1.099680   4.320624   4.989345   2.494768   0.000000
    11  C    3.828215   4.707347   2.741390   2.741447   4.707583
    12  C    4.930868   5.008832   2.621096   4.063540   5.893430
    13  H    4.094805   5.612652   3.818199   2.439034   4.782679
    14  H    5.922292   6.087213   3.654597   4.795966   6.833834
    15  H    5.117401   4.442092   1.947628   4.697397   6.164931
    16  C    2.542941   2.741447   4.707583   4.707347   2.741390
    17  C    2.955407   4.063540   5.893430   5.008832   2.621096
    18  H    3.482880   2.439034   4.782679   5.612652   3.818199
    19  H    4.053276   4.795966   6.833834   6.087213   3.654597
    20  H    2.656512   4.697397   6.164931   4.442092   1.947628
                   11         12         13         14         15
    11  C    0.000000
    12  C    1.325916   0.000000
    13  H    1.098263   2.130353   0.000000
    14  H    2.130336   1.098266   2.513117   0.000000
    15  H    2.130353   1.098263   3.119474   1.848052   0.000000
    16  C    5.870225   6.680390   6.405425   7.765438   6.484151
    17  C    6.680390   7.636214   7.044385   8.692541   7.569845
    18  H    6.405425   7.044385   7.071899   8.142524   6.680390
    19  H    7.765438   8.692541   8.142524   9.758133   8.576021
    20  H    6.484151   7.569845   6.680390   8.576021   7.661964
                   16         17         18         19         20
    16  C    0.000000
    17  C    1.325916   0.000000
    18  H    1.098263   2.130353   0.000000
    19  H    2.130336   1.098266   2.513117   0.000000
    20  H    2.130353   1.098263   3.119474   1.848052   0.000000
 Stoichiometry    C10H10
 Framework group  C2H[SGH(C10H10)]
 Deg. of freedom    19
 Full point group                 C2H     NOp   4
 Largest Abelian subgroup         C2H     NOp   4
 Largest concise Abelian subgroup C2      NOp   2
                         Standard orientation:                         
 ---------------------------------------------------------------------
 Center     Atomic      Atomic             Coordinates (Angstroms)
 Number     Number       Type             X           Y           Z
 ---------------------------------------------------------------------
      1          6           0        1.208103    0.697409    0.000000
      2          6           0       -0.000235    1.394826    0.000000
      3          6           0       -1.208103    0.697490    0.000000
      4          6           0       -1.208103   -0.697409    0.000000
      5          6           0        0.000235   -1.394826    0.000000
      6          6           0        1.208103   -0.697490    0.000000
      7          1           0       -0.000015    2.494481    0.000000
      8          1           0       -2.160567    1.247133    0.000000
      9          1           0        0.000015   -2.494481    0.000000
     10          1           0        2.160567   -1.247133    0.000000
     11          6           0       -2.541850   -1.467612    0.000000
     12          6           0       -3.720103   -0.859523    0.000000
     13          1           0       -2.438113   -2.560965    0.000000
     14          1           0       -4.671363   -1.408424    0.000000
     15          1           0       -3.823839    0.233830    0.000000
     16          6           0        2.541850    1.467612    0.000000
     17          6           0        3.720103    0.859523    0.000000
     18          1           0        2.438113    2.560965    0.000000
     19          1           0        4.671363    1.408424    0.000000
     20          1           0        3.823839   -0.233830    0.000000
 ---------------------------------------------------------------------
 Rotational constants (GHZ):           4.6160103           0.7067289           0.6128927
 Leave Link  202 at Sun Jun 29 23:44:05 2025, MaxMem=   104857600 cpu:               0.0 elap:               0.0
 (Enter /home/eric/data/opt/apps/gaussian/g16A.03/g16/l301.exe)
 Standard basis: STO-3G (5D, 7F)
 Ernie: Thresh=  0.10000D-02 Tol=  0.10000D-05 Strict=F.
 There are    25 symmetry adapted cartesian basis functions of AG  symmetry.
 There are     5 symmetry adapted cartesian basis functions of BG  symmetry.
 There are     5 symmetry adapted cartesian basis functions of AU  symmetry.
 There are    25 symmetry adapted cartesian basis functions of BU  symmetry.
 There are    25 symmetry adapted basis functions of AG  symmetry.
 There are     5 symmetry adapted basis functions of BG  symmetry.
 There are     5 symmetry adapted basis functions of AU  symmetry.
 There are    25 symmetry adapted basis functions of BU  symmetry.
    60 basis functions,   180 primitive gaussians,    60 cartesian basis functions
    35 alpha electrons       35 beta electrons
       nuclear repulsion energy       450.0061382977 Hartrees.
 IExCor=  402 DFT=T Ex+Corr=B3LYP ExCW=0 ScaHFX=  0.200000
 ScaDFX=  0.800000  0.720000  1.000000  0.810000 ScalE2=  1.000000  1.000000
 IRadAn=      5 IRanWt=     -1 IRanGd=            0 ICorTp=0 IEmpDi=  4
 NAtoms=   20 NActive=   20 NUniq=   10 SFac= 4.00D+00 NAtFMM=   60 NAOKFM=F Big=F
 Integral buffers will be    131072 words long.
 Raffenetti 2 integral format.
 Two-electron integral symmetry is turned on.
 Leave Link  301 at Sun Jun 29 23:44:05 2025, MaxMem=   104857600 cpu:               0.0 elap:               0.0
 (Enter /home/eric/data/opt/apps/gaussian/g16A.03/g16/l302.exe)
 NPDir=0 NMtPBC=     1 NCelOv=     1 NCel=       1 NClECP=     1 NCelD=      1
         NCelK=      1 NCelE2=     1 NClLst=     1 CellRange=     0.0.
 One-electron integrals computed using PRISM.
 One-electron integral symmetry used in STVInt
 NBasis=    60 RedAO= T EigKep=  1.71D-01  NBF=    25     5     5    25
 NBsUse=    60 1.00D-06 EigRej= -1.00D+00 NBFU=    25     5     5    25
 Precomputing XC quadrature grid using
 IXCGrd= 4 IRadAn=           5 IRanWt=          -1 IRanGd=           0 AccXCQ= 0.00D+00.
 Generated NRdTot=       0 NPtTot=           0 NUsed=           0 NTot=          32
 NSgBfM=    59    59    59    59    59 MxSgAt=    20 MxSgA2=    20.
 Leave Link  302 at Sun Jun 29 23:44:05 2025, MaxMem=   104857600 cpu:               0.3 elap:               0.3
 (Enter /home/eric/data/opt/apps/gaussian/g16A.03/g16/l303.exe)
 DipDrv:  MaxL=1.
 Leave Link  303 at Sun Jun 29 23:44:05 2025, MaxMem=   104857600 cpu:               0.0 elap:               0.0
 (Enter /home/eric/data/opt/apps/gaussian/g16A.03/g16/l401.exe)
 ExpMin= 1.69D-01 ExpMax= 7.16D+01 ExpMxC= 7.16D+01 IAcc=3 IRadAn=         5 AccDes= 0.00D+00
 Harris functional with IExCor=  402 and IRadAn=       5 diagonalized for initial guess.
 HarFok:  IExCor=  402 AccDes= 0.00D+00 IRadAn=         5 IDoV= 1 UseB2=F ITyADJ=14
 ICtDFT=  3500011 ScaDFX=  1.000000  1.000000  1.000000  1.000000
 FoFCou: FMM=F IPFlag=           0 FMFlag=      100000 FMFlg1=           0
         NFxFlg=           0 DoJE=T BraDBF=F KetDBF=T FulRan=T
         wScrn=  0.000000 ICntrl=       500 IOpCl=  0 I1Cent=   200000004 NGrid=           0
         NMat0=    1 NMatS0=      1 NMatT0=    0 NMatD0=    1 NMtDS0=    0 NMtDT0=    0
 Petite list used in FoFCou.
 Harris En= -382.197518224221    
 JPrj=0 DoOrth=F DoCkMO=F.
 Initial guess orbital symmetries:
       Occupied  (BU) (AG) (BU) (AG) (BU) (AG) (BU) (AG) (BU) (AG)
                 (AG) (BU) (AG) (BU) (BU) (AG) (AG) (BU) (AG) (AG)
                 (BU) (BU) (AG) (BU) (BU) (BU) (AG) (AU) (AG) (BU)
                 (AG) (BG) (AU) (BG) (BG)
       Virtual   (AU) (AU) (BG) (AU) (BG) (AG) (BU) (BU) (AG) (AG)
                 (BU) (BU) (AG) (BU) (AG) (AG) (BU) (AG) (BU) (BU)
                 (AG) (AG) (BU) (AG) (BU)
 The electronic state of the initial guess is 1-AG.
 Leave Link  401 at Sun Jun 29 23:44:06 2025, MaxMem=   104857600 cpu:               0.6 elap:               0.6
 (Enter /home/eric/data/opt/apps/gaussian/g16A.03/g16/l502.exe)
 Keep R1 ints in memory in symmetry-blocked form, NReq=2566258.
 FoFCou: FMM=F IPFlag=           0 FMFlag=           0 FMFlg1=           0
         NFxFlg=           0 DoJE=F BraDBF=F KetDBF=F FulRan=T
         wScrn=  0.000000 ICntrl=       600 IOpCl=  0 I1Cent=           0 NGrid=           0
         NMat0=    1 NMatS0=   1830 NMatT0=    0 NMatD0=    1 NMtDS0=    0 NMtDT0=    0
 Petite list used in FoFCou.
 Closed shell SCF:
 Using DIIS extrapolation, IDIIS=  1040.
 NGot=   104857600 LenX=   104337711 LenY=   104333670
 Requested convergence on RMS density matrix=1.00D-08 within 128 cycles.
 Requested convergence on MAX density matrix=1.00D-06.
 Requested convergence on             energy=1.00D-06.
 No special actions if energy rises.
 Integral accuracy reduced to 1.0D-05 until final iterations.

 Cycle   1  Pass 0  IDiag  1:
 E= -382.243783895432    
 DIIS: error= 2.08D-02 at cycle   1 NSaved=   1.
 NSaved= 1 IEnMin= 1 EnMin= -382.243783895432     IErMin= 1 ErrMin= 2.08D-02
 ErrMax= 2.08D-02  0.00D+00 EMaxC= 1.00D-01 BMatC= 4.09D-02 BMatP= 4.09D-02
 IDIUse=3 WtCom= 7.92D-01 WtEn= 2.08D-01
 Coeff-Com:  0.100D+01
 Coeff-En:   0.100D+01
 Coeff:      0.100D+01
 Gap=     0.209 Goal=   None    Shift=    0.000
 GapD=    0.209 DampG=1.000 DampE=0.500 DampFc=0.5000 IDamp=-1.
 Damping current iteration by 5.00D-01
 RMSDP=8.03D-03 MaxDP=9.78D-02              OVMax= 3.82D-02

 Cycle   2  Pass 0  IDiag  1:
 E= -382.274092133267     Delta-E=       -0.030308237835 Rises=F Damp=T
 DIIS: error= 5.38D-03 at cycle   2 NSaved=   2.
 NSaved= 2 IEnMin= 2 EnMin= -382.274092133267     IErMin= 2 ErrMin= 5.38D-03
 ErrMax= 5.38D-03  0.00D+00 EMaxC= 1.00D-01 BMatC= 3.17D-03 BMatP= 4.09D-02
 IDIUse=3 WtCom= 9.46D-01 WtEn= 5.38D-02
 Coeff-Com: -0.200D+00 0.120D+01
 Coeff-En:   0.000D+00 0.100D+01
 Coeff:     -0.189D+00 0.119D+01
 Gap=     0.210 Goal=   None    Shift=    0.000
 RMSDP=2.12D-03 MaxDP=3.91D-02 DE=-3.03D-02 OVMax= 5.02D-02

 Cycle   3  Pass 0  IDiag  1:
 E= -382.295675864404     Delta-E=       -0.021583731137 Rises=F Damp=F
 DIIS: error= 9.42D-03 at cycle   3 NSaved=   3.
 NSaved= 3 IEnMin= 3 EnMin= -382.295675864404     IErMin= 2 ErrMin= 5.38D-03
 ErrMax= 9.42D-03  0.00D+00 EMaxC= 1.00D-01 BMatC= 3.61D-03 BMatP= 3.17D-03
 IDIUse=3 WtCom= 9.34D-02 WtEn= 9.07D-01
 Coeff-Com: -0.166D+00 0.725D+00 0.441D+00
 Coeff-En:   0.000D+00 0.000D+00 0.100D+01
 Coeff:     -0.155D-01 0.677D-01 0.948D+00
 Gap=     0.209 Goal=   None    Shift=    0.000
 RMSDP=3.19D-03 MaxDP=7.83D-02 DE=-2.16D-02 OVMax= 5.99D-02

 Cycle   4  Pass 0  IDiag  1:
 E= -382.287478772699     Delta-E=        0.008197091705 Rises=F Damp=F
 DIIS: error= 1.61D-02 at cycle   4 NSaved=   4.
 NSaved= 4 IEnMin= 3 EnMin= -382.295675864404     IErMin= 2 ErrMin= 5.38D-03
 ErrMax= 1.61D-02  0.00D+00 EMaxC= 1.00D-01 BMatC= 1.02D-02 BMatP= 3.17D-03
 IDIUse=2 WtCom= 0.00D+00 WtEn= 1.00D+00
 Coeff-En:   0.000D+00 0.000D+00 0.695D+00 0.305D+00
 Coeff:      0.000D+00 0.000D+00 0.695D+00 0.305D+00
 Gap=     0.209 Goal=   None    Shift=    0.000
 RMSDP=1.60D-03 MaxDP=3.94D-02 DE= 8.20D-03 OVMax= 2.91D-02

 Cycle   5  Pass 0  IDiag  1:
 E= -382.299751505728     Delta-E=       -0.012272733029 Rises=F Damp=F
 DIIS: error= 3.13D-03 at cycle   5 NSaved=   5.
 NSaved= 5 IEnMin= 5 EnMin= -382.299751505728     IErMin= 5 ErrMin= 3.13D-03
 ErrMax= 3.13D-03  0.00D+00 EMaxC= 1.00D-01 BMatC= 3.98D-04 BMatP= 3.17D-03
 IDIUse=3 WtCom= 9.69D-01 WtEn= 3.13D-02
 Coeff-Com:  0.848D-02-0.184D-01 0.321D+00 0.777D-01 0.611D+00
 Coeff-En:   0.000D+00 0.000D+00 0.108D+00 0.000D+00 0.892D+00
 Coeff:      0.821D-02-0.178D-01 0.314D+00 0.753D-01 0.620D+00
 Gap=     0.210 Goal=   None    Shift=    0.000
 RMSDP=4.09D-04 MaxDP=9.76D-03 DE=-1.23D-02 OVMax= 7.24D-03

 Cycle   6  Pass 0  IDiag  1:
 E= -382.300252662459     Delta-E=       -0.000501156732 Rises=F Damp=F
 DIIS: error= 9.66D-05 at cycle   6 NSaved=   6.
 NSaved= 6 IEnMin= 6 EnMin= -382.300252662459     IErMin= 6 ErrMin= 9.66D-05
 ErrMax= 9.66D-05  0.00D+00 EMaxC= 1.00D-01 BMatC= 3.76D-07 BMatP= 3.98D-04
 IDIUse=1 WtCom= 1.00D+00 WtEn= 0.00D+00
 Coeff-Com:  0.625D-03-0.166D-02 0.367D-01 0.556D-02 0.111D+00 0.848D+00
 Coeff:      0.625D-03-0.166D-02 0.367D-01 0.556D-02 0.111D+00 0.848D+00
 Gap=     0.210 Goal=   None    Shift=    0.000
 RMSDP=1.23D-05 MaxDP=2.58D-04 DE=-5.01D-04 OVMax= 1.43D-04

 Cycle   7  Pass 0  IDiag  1:
 E= -382.300253120733     Delta-E=       -0.000000458274 Rises=F Damp=F
 DIIS: error= 7.31D-06 at cycle   7 NSaved=   7.
 NSaved= 7 IEnMin= 7 EnMin= -382.300253120733     IErMin= 7 ErrMin= 7.31D-06
 ErrMax= 7.31D-06  0.00D+00 EMaxC= 1.00D-01 BMatC= 4.21D-09 BMatP= 3.76D-07
 IDIUse=1 WtCom= 1.00D+00 WtEn= 0.00D+00
 Coeff-Com: -0.201D-03 0.320D-03-0.236D-02-0.185D-02 0.126D-01 0.369D+00
 Coeff-Com:  0.623D+00
 Coeff:     -0.201D-03 0.320D-03-0.236D-02-0.185D-02 0.126D-01 0.369D+00
 Coeff:      0.623D+00
 Gap=     0.210 Goal=   None    Shift=    0.000
 RMSDP=1.76D-06 MaxDP=1.64D-05 DE=-4.58D-07 OVMax= 1.71D-05

 Initial convergence to 1.0D-05 achieved.  Increase integral accuracy.
 Cycle   8  Pass 1  IDiag  1:
 E= -382.300235646379     Delta-E=        0.000017474354 Rises=F Damp=F
 DIIS: error= 1.07D-06 at cycle   1 NSaved=   1.
 NSaved= 1 IEnMin= 1 EnMin= -382.300235646379     IErMin= 1 ErrMin= 1.07D-06
 ErrMax= 1.07D-06  0.00D+00 EMaxC= 1.00D-01 BMatC= 4.16D-11 BMatP= 4.16D-11
 IDIUse=1 WtCom= 1.00D+00 WtEn= 0.00D+00
 Coeff-Com:  0.100D+01
 Coeff:      0.100D+01
 Gap=     0.210 Goal=   None    Shift=    0.000
 RMSDP=1.76D-06 MaxDP=1.64D-05 DE= 1.75D-05 OVMax= 3.34D-06

 Cycle   9  Pass 1  IDiag  1:
 E= -382.300235646453     Delta-E=       -0.000000000074 Rises=F Damp=F
 DIIS: error= 3.88D-07 at cycle   2 NSaved=   2.
 NSaved= 2 IEnMin= 2 EnMin= -382.300235646453     IErMin= 2 ErrMin= 3.88D-07
 ErrMax= 3.88D-07  0.00D+00 EMaxC= 1.00D-01 BMatC= 8.78D-12 BMatP= 4.16D-11
 IDIUse=1 WtCom= 1.00D+00 WtEn= 0.00D+00
 Coeff-Com:  0.250D+00 0.750D+00
 Coeff:      0.250D+00 0.750D+00
 Gap=     0.210 Goal=   None    Shift=    0.000
 RMSDP=1.06D-07 MaxDP=1.49D-06 DE=-7.40D-11 OVMax= 1.07D-06

 Cycle  10  Pass 1  IDiag  1:
 E= -382.300235646462     Delta-E=       -0.000000000009 Rises=F Damp=F
 DIIS: error= 2.34D-07 at cycle   3 NSaved=   3.
 NSaved= 3 IEnMin= 3 EnMin= -382.300235646462     IErMin= 3 ErrMin= 2.34D-07
 ErrMax= 2.34D-07  0.00D+00 EMaxC= 1.00D-01 BMatC= 2.74D-12 BMatP= 8.78D-12
 IDIUse=1 WtCom= 1.00D+00 WtEn= 0.00D+00
 Coeff-Com: -0.616D-03 0.353D+00 0.648D+00
 Coeff:     -0.616D-03 0.353D+00 0.648D+00
 Gap=     0.210 Goal=   None    Shift=    0.000
 RMSDP=4.05D-08 MaxDP=6.99D-07 DE=-8.75D-12 OVMax= 5.83D-07

 Cycle  11  Pass 1  IDiag  1:
 E= -382.300235646466     Delta-E=       -0.000000000004 Rises=F Damp=F
 DIIS: error= 4.64D-08 at cycle   4 NSaved=   4.
 NSaved= 4 IEnMin= 4 EnMin= -382.300235646466     IErMin= 4 ErrMin= 4.64D-08
 ErrMax= 4.64D-08  0.00D+00 EMaxC= 1.00D-01 BMatC= 1.53D-13 BMatP= 2.74D-12
 IDIUse=1 WtCom= 1.00D+00 WtEn= 0.00D+00
 Coeff-Com: -0.883D-02 0.148D+00 0.322D+00 0.539D+00
 Coeff:     -0.883D-02 0.148D+00 0.322D+00 0.539D+00
 Gap=     0.210 Goal=   None    Shift=    0.000
 RMSDP=9.17D-09 MaxDP=1.37D-07 DE=-4.43D-12 OVMax= 4.60D-08

 SCF Done:  E(RB3LYP) =  -382.300235646     A.U. after   11 cycles
            NFock= 11  Conv=0.92D-08     -V/T= 2.0167
 KE= 3.760297852661D+02 PE=-1.784698708739D+03 EE= 5.763625495284D+02
 Leave Link  502 at Sun Jun 29 23:44:09 2025, MaxMem=   104857600 cpu:               2.7 elap:               2.8
 (Enter /home/eric/data/opt/apps/gaussian/g16A.03/g16/l601.exe)
 Copying SCF densities to generalized density rwf, IOpCl= 0 IROHF=0.

 **********************************************************************

            Population analysis using the SCF density.

 **********************************************************************

 Orbital symmetries:
       Occupied  (BU) (AG) (BU) (AG) (BU) (AG) (BU) (AG) (BU) (AG)
                 (AG) (BU) (AG) (BU) (BU) (AG) (AG) (BU) (AG) (AG)
                 (BU) (BU) (BU) (AG) (BU) (BU) (AG) (AU) (BU) (AG)
                 (AG) (BG) (AU) (BG) (BG)
       Virtual   (AU) (AU) (BG) (AU) (BG) (AG) (BU) (BU) (AG) (BU)
                 (AG) (BU) (AG) (BU) (AG) (AG) (BU) (AG) (BU) (BU)
                 (AG) (AG) (BU) (AG) (BU)
 The electronic state is 1-AG.
 Alpha  occ. eigenvalues --  -10.01795 -10.01788 -10.00754 -10.00754 -10.00665
 Alpha  occ. eigenvalues --  -10.00662 -10.00559 -10.00548  -9.99193  -9.99193
 Alpha  occ. eigenvalues --   -0.81796  -0.75504  -0.72068  -0.70413  -0.67021
 Alpha  occ. eigenvalues --   -0.58511  -0.56058  -0.53191  -0.51212  -0.46191
 Alpha  occ. eigenvalues --   -0.43852  -0.41040  -0.39958  -0.39711  -0.37550
 Alpha  occ. eigenvalues --   -0.35777  -0.34896  -0.33016  -0.30527  -0.29544
 Alpha  occ. eigenvalues --   -0.28089  -0.26315  -0.21604  -0.19752  -0.16006
 Alpha virt. eigenvalues --    0.04958   0.09073   0.11645   0.18147   0.28032
 Alpha virt. eigenvalues --    0.31923   0.32955   0.36540   0.37027   0.41287
 Alpha virt. eigenvalues --    0.41597   0.42156   0.44573   0.46877   0.49587
 Alpha virt. eigenvalues --    0.53877   0.57055   0.58675   0.61013   0.62652
 Alpha virt. eigenvalues --    0.64574   0.69281   0.74302   0.80623   0.81603
          Condensed to atoms (all electrons):
               1          2          3          4          5          6
     1  C    4.780389   0.500524  -0.029604  -0.012317  -0.029430   0.500965
     2  C    0.500524   4.806228   0.508294  -0.029430  -0.011748  -0.031087
     3  C   -0.029604   0.508294   4.806998   0.500965  -0.031087  -0.011871
     4  C   -0.012317  -0.029430   0.500965   4.780389   0.500524  -0.029604
     5  C   -0.029430  -0.011748  -0.031087   0.500524   4.806228   0.508294
     6  C    0.500965  -0.031087  -0.011871  -0.029604   0.508294   4.806998
     7  H   -0.025567   0.388651  -0.025124   0.001439   0.000038   0.001436
     8  H    0.001432  -0.024991   0.388914  -0.025106   0.001426   0.000038
     9  H    0.001439   0.000038   0.001436  -0.025567   0.388651  -0.025124
    10  H   -0.025106   0.001426   0.000038   0.001432  -0.024991   0.388914
    11  C    0.000021   0.000837  -0.025479   0.394478  -0.027176   0.000856
    12  C   -0.000000   0.000033  -0.006226  -0.025466   0.000653  -0.000008
    13  H   -0.000001  -0.000017   0.001008  -0.024484  -0.003009   0.000007
    14  H    0.000000   0.000000   0.000046   0.001373  -0.000015   0.000000
    15  H   -0.000001  -0.000016  -0.001933  -0.004547   0.000028  -0.000001
    16  C    0.394478  -0.027176   0.000856   0.000021   0.000837  -0.025479
    17  C   -0.025466   0.000653  -0.000008  -0.000000   0.000033  -0.006226
    18  H   -0.024484  -0.003009   0.000007  -0.000001  -0.000017   0.001008
    19  H    0.001373  -0.000015   0.000000   0.000000   0.000000   0.000046
    20  H   -0.004547   0.000028  -0.000001  -0.000001  -0.000016  -0.001933
               7          8          9         10         11         12
     1  C   -0.025567   0.001432   0.001439  -0.025106   0.000021  -0.000000
     2  C    0.388651  -0.024991   0.000038   0.001426   0.000837   0.000033
     3  C   -0.025124   0.388914   0.001436   0.000038  -0.025479  -0.006226
     4  C    0.001439  -0.025106  -0.025567   0.001432   0.394478  -0.025466
     5  C    0.000038   0.001426   0.388651  -0.024991  -0.027176   0.000653
     6  C    0.001436   0.000038  -0.025124   0.388914   0.000856  -0.000008
     7  H    0.587060  -0.003771   0.000002  -0.000035  -0.000016   0.000001
     8  H   -0.003771   0.587091  -0.000035   0.000002  -0.003921  -0.001930
     9  H    0.000002  -0.000035   0.587060  -0.003771  -0.003911   0.000035
    10  H   -0.000035   0.000002  -0.003771   0.587091  -0.000015   0.000000
    11  C   -0.000016  -0.003921  -0.003911  -0.000015   4.802202   0.598464
    12  C    0.000001  -0.001930   0.000035   0.000000   0.598464   4.843714
    13  H    0.000000   0.000037   0.001003  -0.000001   0.386413  -0.025664
    14  H   -0.000000  -0.000025  -0.000002  -0.000000  -0.023489   0.386633
    15  H    0.000005   0.001126   0.000001   0.000000  -0.023984   0.386142
    16  C   -0.003911  -0.000015  -0.000016  -0.003921   0.000000   0.000000
    17  C    0.000035   0.000000   0.000001  -0.001930   0.000000  -0.000000
    18  H    0.001003  -0.000001   0.000000   0.000037  -0.000000   0.000000
    19  H   -0.000002  -0.000000  -0.000000  -0.000025  -0.000000   0.000000
    20  H    0.000001   0.000000   0.000005   0.001126   0.000000   0.000000
              13         14         15         16         17         18
     1  C   -0.000001   0.000000  -0.000001   0.394478  -0.025466  -0.024484
     2  C   -0.000017   0.000000  -0.000016  -0.027176   0.000653  -0.003009
     3  C    0.001008   0.000046  -0.001933   0.000856  -0.000008   0.000007
     4  C   -0.024484   0.001373  -0.004547   0.000021  -0.000000  -0.000001
     5  C   -0.003009  -0.000015   0.000028   0.000837   0.000033  -0.000017
     6  C    0.000007   0.000000  -0.000001  -0.025479  -0.006226   0.001008
     7  H    0.000000  -0.000000   0.000005  -0.003911   0.000035   0.001003
     8  H    0.000037  -0.000025   0.001126  -0.000015   0.000000  -0.000001
     9  H    0.001003  -0.000002   0.000001  -0.000016   0.000001   0.000000
    10  H   -0.000001  -0.000000   0.000000  -0.003921  -0.001930   0.000037
    11  C    0.386413  -0.023489  -0.023984   0.000000   0.000000  -0.000000
    12  C   -0.025664   0.386633   0.386142   0.000000  -0.000000   0.000000
    13  H    0.588306  -0.004408   0.002000  -0.000000   0.000000   0.000000
    14  H   -0.004408   0.585953  -0.024426  -0.000000   0.000000  -0.000000
    15  H    0.002000  -0.024426   0.589053   0.000000   0.000000   0.000000
    16  C   -0.000000  -0.000000   0.000000   4.802202   0.598464   0.386413
    17  C    0.000000   0.000000   0.000000   0.598464   4.843714  -0.025664
    18  H    0.000000  -0.000000   0.000000   0.386413  -0.025664   0.588306
    19  H   -0.000000  -0.000000   0.000000  -0.023489   0.386633  -0.004408
    20  H    0.000000   0.000000  -0.000000  -0.023984   0.386142   0.002000
              19         20
     1  C    0.001373  -0.004547
     2  C   -0.000015   0.000028
     3  C    0.000000  -0.000001
     4  C    0.000000  -0.000001
     5  C    0.000000  -0.000016
     6  C    0.000046  -0.001933
     7  H   -0.000002   0.000001
     8  H   -0.000000   0.000000
     9  H   -0.000000   0.000005
    10  H   -0.000025   0.001126
    11  C   -0.000000   0.000000
    12  C    0.000000   0.000000
    13  H   -0.000000   0.000000
    14  H   -0.000000   0.000000
    15  H    0.000000  -0.000000
    16  C   -0.023489  -0.023984
    17  C    0.386633   0.386142
    18  H   -0.004408   0.002000
    19  H    0.585953  -0.024426
    20  H   -0.024426   0.589053
 Mulliken charges:
               1
     1  C   -0.004097
     2  C   -0.079223
     3  C   -0.077230
     4  C   -0.004097
     5  C   -0.079223
     6  C   -0.077230
     7  H    0.078754
     8  H    0.079730
     9  H    0.078754
    10  H    0.079730
    11  C   -0.075280
    12  C   -0.156380
    13  H    0.078811
    14  H    0.078363
    15  H    0.076553
    16  C   -0.075280
    17  C   -0.156380
    18  H    0.078811
    19  H    0.078363
    20  H    0.076553
 Sum of Mulliken charges =  -0.00000
 Mulliken charges with hydrogens summed into heavy atoms:
               1
     1  C   -0.004097
     2  C   -0.000469
     3  C    0.002500
     4  C   -0.004097
     5  C   -0.000469
     6  C    0.002500
    11  C    0.003531
    12  C   -0.001465
    16  C    0.003531
    17  C   -0.001465
 Electronic spatial extent (au):  <R**2>=           1815.7757
 Charge=             -0.0000 electrons
 Dipole moment (field-independent basis, Debye):
    X=             -0.0000    Y=             -0.0000    Z=              0.0000  Tot=              0.0000
 Quadrupole moment (field-independent basis, Debye-Ang):
   XX=            -50.8150   YY=            -50.2926   ZZ=            -58.5742
   XY=             -0.3354   XZ=              0.0000   YZ=              0.0000
 Traceless Quadrupole moment (field-independent basis, Debye-Ang):
   XX=              2.4123   YY=              2.9347   ZZ=             -5.3470
   XY=             -0.3354   XZ=              0.0000   YZ=              0.0000
 Octapole moment (field-independent basis, Debye-Ang**2):
  XXX=             -0.0000  YYY=              0.0000  ZZZ=              0.0000  XYY=             -0.0000
  XXY=             -0.0000  XXZ=              0.0000  XZZ=              0.0000  YZZ=              0.0000
  YYZ=              0.0000  XYZ=              0.0000
 Hexadecapole moment (field-independent basis, Debye-Ang**3):
 XXXX=          -1664.3048 YYYY=           -475.3461 ZZZZ=            -47.5456 XXXY=           -220.2416
 XXXZ=              0.0000 YYYX=           -221.7718 YYYZ=              0.0000 ZZZX=              0.0000
 ZZZY=              0.0000 XXYY=           -358.9675 XXZZ=           -328.1119 YYZZ=           -100.7348
 XXYZ=              0.0000 YYXZ=              0.0000 ZZXY=            -85.5625
 N-N= 4.500061382977D+02 E-N=-1.784698707706D+03  KE= 3.760297852661D+02
 Symmetry AG   KE= 1.814872936475D+02
 Symmetry BG   KE= 7.819651325866D+00
 Symmetry AU   KE= 4.680625486732D+00
 Symmetry BU   KE= 1.820422148060D+02
 No NMR shielding tensors so no spin-rotation constants.
 Leave Link  601 at Sun Jun 29 23:44:09 2025, MaxMem=   104857600 cpu:               0.1 elap:               0.2
 (Enter /home/eric/data/opt/apps/gaussian/g16A.03/g16/l701.exe)
 ... and contract with generalized density number  0.
 Compute integral first derivatives.
 Leave Link  701 at Sun Jun 29 23:44:10 2025, MaxMem=   104857600 cpu:               0.1 elap:               0.1
 (Enter /home/eric/data/opt/apps/gaussian/g16A.03/g16/l702.exe)
 L702 exits ... SP integral derivatives will be done elsewhere.
 Leave Link  702 at Sun Jun 29 23:44:10 2025, MaxMem=   104857600 cpu:               0.0 elap:               0.0
 (Enter /home/eric/data/opt/apps/gaussian/g16A.03/g16/l703.exe)
 Integral derivatives from FoFJK, PRISM(SPDF).
 Compute integral first derivatives, UseDBF=F ICtDFT=           0.
 Calling FoFJK, ICntrl=      2127 FMM=F ISym2X=1 I1Cent= 0 IOpClX= 0 NMat=1 NMatS=1 NMatT=0.
 FoFJK:  IHMeth= 1 ICntrl=    2127 DoSepK=F KAlg= 0 I1Cent=           0 FoldK=F
 IRaf=         0 NMat=       1 IRICut=       1 DoRegI=T DoRafI=F ISym2E= 1 IDoP0=0 IntGTp=1.
 FoFCou: FMM=F IPFlag=           0 FMFlag=      100000 FMFlg1=         800
         NFxFlg=           0 DoJE=F BraDBF=F KetDBF=F FulRan=T
         wScrn=  0.000000 ICntrl=      2127 IOpCl=  0 I1Cent=           0 NGrid=           0
         NMat0=    1 NMatS0=      1 NMatT0=    0 NMatD0=    1 NMtDS0=    0 NMtDT0=    0
 Petite list used in FoFCou.
 Leave Link  703 at Sun Jun 29 23:44:11 2025, MaxMem=   104857600 cpu:               0.9 elap:               0.9
 (Enter /home/eric/data/opt/apps/gaussian/g16A.03/g16/l716.exe)
 Dipole        = 1.77635684D-15 4.27435864D-15 0.00000000D+00
 ***** Axes restored to original set *****
 -------------------------------------------------------------------
 Center     Atomic                   Forces (Hartrees/Bohr)
 Number     Number              X              Y              Z
 -------------------------------------------------------------------
      1        6           0.008585255   -0.050683665   -0.000000000
      2        6           0.019231448    0.006175509   -0.000000000
      3        6           0.019935357   -0.001517808   -0.000000000
      4        6          -0.008585255    0.050683665   -0.000000000
      5        6          -0.019231448   -0.006175509   -0.000000000
      6        6          -0.019935357    0.001517808   -0.000000000
      7        1          -0.001339721   -0.000188912   -0.000000000
      8        1          -0.001476456   -0.003428646   -0.000000000
      9        1           0.001339721    0.000188912   -0.000000000
     10        1           0.001476456    0.003428646   -0.000000000
     11        6          -0.004645629   -0.039235131   -0.000000000
     12        6           0.013082113    0.023341633   -0.000000000
     13        1          -0.000334703    0.002986635   -0.000000000
     14        1          -0.002000183   -0.001518721   -0.000000000
     15        1          -0.002863311    0.000184742   -0.000000000
     16        6           0.004645629    0.039235131   -0.000000000
     17        6          -0.013082113   -0.023341633   -0.000000000
     18        1           0.000334703   -0.002986635   -0.000000000
     19        1           0.002000183    0.001518721   -0.000000000
     20        1           0.002863311   -0.000184742   -0.000000000
 -------------------------------------------------------------------
 Cartesian Forces:  Max     0.050683665 RMS     0.013864267
 Leave Link  716 at Sun Jun 29 23:44:11 2025, MaxMem=   104857600 cpu:               0.0 elap:               0.0
 (Enter /home/eric/data/opt/apps/gaussian/g16A.03/g16/l103.exe)

 GradGradGradGradGradGradGradGradGradGradGradGradGradGradGradGradGradGrad
 Berny optimization.
 FormGI is forming the generalized inverse of G from B-inverse, IUseBI=4.
 Internal  Forces:  Max     0.025383622 RMS     0.008118599
 Search for a local minimum.
 Step number   1 out of a maximum of  100
 All quantities printed in internal units (Hartrees-Bohrs-Radians)
 RMS Force = .81186D-02 SwitMx=.10000D-02 MixMth= 1
 Mixed Optimization -- RFO/linear search
 Second derivative matrix not updated -- first step.
 ITU=  0
     Eigenvalues ---    0.00235   0.00235   0.01514   0.01617   0.01762
     Eigenvalues ---    0.01762   0.02154   0.02155   0.02156   0.02156
     Eigenvalues ---    0.02157   0.02158   0.02158   0.03069   0.03069
     Eigenvalues ---    0.03069   0.03069   0.16000   0.16000   0.16000
     Eigenvalues ---    0.16000   0.16000   0.16000   0.16000   0.16000
     Eigenvalues ---    0.16000   0.16000   0.22000   0.22000   0.22000
     Eigenvalues ---    0.22982   0.24000   0.25000   0.25000   0.28505
     Eigenvalues ---    0.28505   0.33718   0.33718   0.33720   0.33720
     Eigenvalues ---    0.33875   0.33875   0.33875   0.33875   0.33875
     Eigenvalues ---    0.33875   0.42142   0.42486   0.46432   0.46472
     Eigenvalues ---    0.46477   0.46508   0.60481   0.60481
 RFO step:  Lambda=-1.60768409D-02 EMin= 2.34697426D-03
 Linear search not attempted -- first point.
 Iteration  1 RMS(Cart)=  0.09183444 RMS(Int)=  0.00220207
 Iteration  2 RMS(Cart)=  0.00314213 RMS(Int)=  0.00000209
 Iteration  3 RMS(Cart)=  0.00000679 RMS(Int)=  0.00000000
 Iteration  4 RMS(Cart)=  0.00000000 RMS(Int)=  0.00000000
 ITry= 1 IFail=0 DXMaxC= 3.75D-01 DCOld= 1.00D+10 DXMaxT= 3.00D-01 DXLimC= 3.00D+00 Rises=F
 ClnCor:  largest displacement from symmetrization is 3.27D-10 for atom    19.
 Variable       Old X    -DE/DX   Delta X   Delta X   Delta X     New X
                                 (Linear)    (Quad)   (Total)
    R1        2.63647   0.02403   0.00000   0.05002   0.05002   2.68649
    R2        2.63598   0.02538   0.00000   0.05279   0.05279   2.68877
    R3        2.91048  -0.01460   0.00000  -0.04849  -0.04849   2.86199
    R4        2.63562   0.01298   0.00000   0.02697   0.02697   2.66259
    R5        2.07805  -0.00121   0.00000  -0.00343  -0.00343   2.07462
    R6        2.63598   0.02538   0.00000   0.05279   0.05279   2.68877
    R7        2.07809  -0.00338   0.00000  -0.00956  -0.00956   2.06853
    R8        2.63647   0.02403   0.00000   0.05002   0.05002   2.68649
    R9        2.91048  -0.01460   0.00000  -0.04849  -0.04849   2.86199
   R10        2.63562   0.01298   0.00000   0.02697   0.02697   2.66259
   R11        2.07805  -0.00121   0.00000  -0.00343  -0.00343   2.07462
   R12        2.07809  -0.00338   0.00000  -0.00956  -0.00956   2.06853
   R13        2.50562   0.02124   0.00000   0.03421   0.03421   2.53983
   R14        2.07542   0.00100   0.00000   0.00282   0.00282   2.07824
   R15        2.07542  -0.00109   0.00000  -0.00307  -0.00307   2.07235
   R16        2.07542  -0.00283   0.00000  -0.00798  -0.00798   2.06744
   R17        2.50562   0.02124   0.00000   0.03421   0.03421   2.53983
   R18        2.07542   0.00100   0.00000   0.00282   0.00282   2.07824
   R19        2.07542  -0.00109   0.00000  -0.00307  -0.00307   2.07235
   R20        2.07542  -0.00283   0.00000  -0.00798  -0.00798   2.06744
    A1        2.09426  -0.00839   0.00000  -0.03276  -0.03276   2.06150
    A2        2.09444  -0.00683   0.00000  -0.02506  -0.02506   2.06938
    A3        2.09449   0.01522   0.00000   0.05782   0.05782   2.15231
    A4        2.09455   0.00513   0.00000   0.02036   0.02036   2.11491
    A5        2.09406  -0.00319   0.00000  -0.01374  -0.01374   2.08032
    A6        2.09458  -0.00194   0.00000  -0.00662  -0.00662   2.08796
    A7        2.09438   0.00325   0.00000   0.01240   0.01240   2.10678
    A8        2.09462  -0.00328   0.00000  -0.01556  -0.01556   2.07905
    A9        2.09419   0.00002   0.00000   0.00317   0.00317   2.09736
   A10        2.09426  -0.00839   0.00000  -0.03276  -0.03276   2.06150
   A11        2.09449   0.01522   0.00000   0.05782   0.05782   2.15231
   A12        2.09444  -0.00683   0.00000  -0.02506  -0.02506   2.06938
   A13        2.09455   0.00513   0.00000   0.02036   0.02036   2.11491
   A14        2.09406  -0.00319   0.00000  -0.01374  -0.01374   2.08032
   A15        2.09458  -0.00194   0.00000  -0.00662  -0.00662   2.08796
   A16        2.09438   0.00325   0.00000   0.01240   0.01240   2.10678
   A17        2.09419   0.00002   0.00000   0.00317   0.00317   2.09736
   A18        2.09462  -0.00328   0.00000  -0.01556  -0.01556   2.07905
   A19        2.14146   0.01729   0.00000   0.07325   0.07325   2.21471
   A20        1.99989  -0.00571   0.00000  -0.01992  -0.01992   1.97997
   A21        2.14183  -0.01159   0.00000  -0.05332  -0.05332   2.08851
   A22        2.14180  -0.00281   0.00000  -0.01595  -0.01595   2.12585
   A23        2.14183   0.00092   0.00000   0.00523   0.00523   2.14706
   A24        1.99956   0.00189   0.00000   0.01073   0.01073   2.01028
   A25        2.14146   0.01729   0.00000   0.07325   0.07325   2.21471
   A26        1.99989  -0.00571   0.00000  -0.01992  -0.01992   1.97997
   A27        2.14183  -0.01159   0.00000  -0.05332  -0.05332   2.08851
   A28        2.14180  -0.00281   0.00000  -0.01595  -0.01595   2.12585
   A29        2.14183   0.00092   0.00000   0.00523   0.00523   2.14706
   A30        1.99956   0.00189   0.00000   0.01073   0.01073   2.01028
    D1        0.00000  -0.00000   0.00000  -0.00000   0.00000   0.00000
    D2        3.14159  -0.00000   0.00000  -0.00000   0.00000   3.14159
    D3        3.14159   0.00000   0.00000  -0.00000   0.00000   3.14159
    D4        0.00000   0.00000   0.00000  -0.00000   0.00000   0.00000
    D5        0.00000   0.00000   0.00000   0.00000   0.00000   0.00000
    D6        3.14159  -0.00000   0.00000  -0.00000   0.00000   3.14159
    D7        3.14159  -0.00000   0.00000   0.00000   0.00000   3.14159
    D8        0.00000   0.00000   0.00000   0.00000   0.00000   0.00000
    D9        3.14159   0.00000   0.00000   0.00000   0.00000   3.14159
   D10        0.00000  -0.00000   0.00000  -0.00000   0.00000   0.00000
   D11        0.00000  -0.00000   0.00000  -0.00000   0.00000   0.00000
   D12        3.14159   0.00000   0.00000  -0.00000   0.00000   3.14159
   D13        0.00000  -0.00000   0.00000   0.00000   0.00000   0.00000
   D14        3.14159   0.00000   0.00000   0.00000   0.00000   3.14159
   D15        3.14159   0.00000   0.00000   0.00000   0.00000   3.14159
   D16        0.00000  -0.00000   0.00000   0.00000   0.00000   0.00000
   D17        0.00000  -0.00000   0.00000  -0.00000   0.00000   0.00000
   D18        3.14159   0.00000   0.00000  -0.00000   0.00000   3.14159
   D19        3.14159  -0.00000   0.00000  -0.00000   0.00000   3.14159
   D20        0.00000  -0.00000   0.00000  -0.00000   0.00000   0.00000
   D21        0.00000   0.00000   0.00000   0.00000   0.00000   0.00000
   D22        3.14159  -0.00000   0.00000  -0.00000   0.00000   3.14159
   D23        3.14159  -0.00000   0.00000   0.00000   0.00000   3.14159
   D24        0.00000  -0.00000   0.00000   0.00000   0.00000   0.00000
   D25        0.00000  -0.00000   0.00000   0.00000   0.00000   0.00000
   D26        3.14159  -0.00000   0.00000  -0.00000   0.00000   3.14159
   D27        3.14159  -0.00000   0.00000   0.00000   0.00000   3.14159
   D28        0.00000  -0.00000   0.00000  -0.00000   0.00000   0.00000
   D29        0.00000   0.00000   0.00000   0.00000   0.00000   0.00000
   D30        3.14159   0.00000   0.00000   0.00000   0.00000   3.14159
   D31        3.14159   0.00000   0.00000   0.00000   0.00000   3.14159
   D32        0.00000   0.00000   0.00000   0.00000   0.00000   0.00000
   D33        3.14159   0.00000   0.00000  -0.00000   0.00000   3.14159
   D34        0.00000  -0.00000   0.00000  -0.00000   0.00000   0.00000
   D35        0.00000   0.00000   0.00000  -0.00000   0.00000   0.00000
   D36        3.14159  -0.00000   0.00000  -0.00000   0.00000   3.14159
   D37        3.14159   0.00000   0.00000   0.00000   0.00000   3.14159
   D38        0.00000   0.00000   0.00000   0.00000   0.00000   0.00000
   D39        0.00000   0.00000   0.00000   0.00000   0.00000   0.00000
   D40        3.14159  -0.00000   0.00000   0.00000   0.00000   3.14159
         Item               Value     Threshold  Converged?
 Maximum Force            0.025384     0.000450     NO 
 RMS     Force            0.008119     0.000300     NO 
 Maximum Displacement     0.374535     0.001800     NO 
 RMS     Displacement     0.092666     0.001200     NO 
 Predicted change in Energy=-8.437469D-03
 Lowest energy point so far.  Saving SCF results.
 GradGradGradGradGradGradGradGradGradGradGradGradGradGradGradGradGradGrad

 Leave Link  103 at Sun Jun 29 23:44:11 2025, MaxMem=   104857600 cpu:               0.0 elap:               0.0
 (Enter /home/eric/data/opt/apps/gaussian/g16A.03/g16/l202.exe)
                          Input orientation:                          
 ---------------------------------------------------------------------
 Center     Atomic      Atomic             Coordinates (Angstroms)
 Number     Number       Type             X           Y           Z
 ---------------------------------------------------------------------
      1          6           0        0.232551   -1.416806    0.000000
      2          6           0        1.315862   -0.496225    0.000000
      3          6           0        1.091029    0.894703    0.000000
      4          6           0       -0.232551    1.416806    0.000000
      5          6           0       -1.315862    0.496225    0.000000
      6          6           0       -1.091029   -0.894703    0.000000
      7          1           0        2.344520   -0.879787    0.000000
      8          1           0        1.950024    1.573170    0.000000
      9          1           0       -2.344520    0.879787    0.000000
     10          1           0       -1.950024   -1.573170    0.000000
     11          6           0       -0.542019    2.899354    0.000000
     12          6           0        0.345316    3.908820    0.000000
     13          1           0       -1.619106    3.121491    0.000000
     14          1           0        0.026849    4.958203    0.000000
     15          1           0        1.427902    3.750916    0.000000
     16          6           0        0.542019   -2.899354    0.000000
     17          6           0       -0.345316   -3.908820    0.000000
     18          1           0        1.619106   -3.121491    0.000000
     19          1           0       -0.026849   -4.958203    0.000000
     20          1           0       -1.427902   -3.750916    0.000000
 ---------------------------------------------------------------------
                    Distance matrix (angstroms):
                    1          2          3          4          5
     1  C    0.000000
     2  C    1.421631   0.000000
     3  C    2.465778   1.408982   0.000000
     4  C    2.871529   2.461153   1.422834   0.000000
     5  C    2.461153   2.812638   2.439654   1.421631   0.000000
     6  C    1.422834   2.439654   2.821941   2.465778   1.408982
     7  H    2.179174   1.097842   2.172569   3.451903   3.910474
     8  H    3.448141   2.164384   1.094619   2.188169   3.438870
     9  H    3.451903   3.910474   3.435581   2.179174   1.097842
    10  H    2.188169   3.438870   3.916427   3.448141   2.164384
    11  C    4.385111   3.870617   2.585627   1.514503   2.524652
    12  C    5.326820   4.510696   3.104994   2.558137   3.795435
    13  H    4.901508   4.658530   3.507622   2.197381   2.642722
    14  H    6.378327   5.604671   4.200536   3.550884   4.659627
    15  H    5.304170   4.248618   2.876010   2.864467   4.256907
    16  C    1.514503   2.524652   3.833573   4.385111   3.870617
    17  C    2.558137   3.795435   5.013674   5.326820   4.510696
    18  H    2.197381   2.642722   4.050763   4.901508   4.658530
    19  H    3.550884   4.659627   5.958704   6.378327   5.604671
    20  H    2.864467   4.256907   5.284580   5.304170   4.248618
                    6          7          8          9         10
     6  C    0.000000
     7  H    3.435581   0.000000
     8  H    3.916427   2.484477   0.000000
     9  H    2.172569   5.008312   4.350159   0.000000
    10  H    1.094619   4.350159   5.010971   2.484477   0.000000
    11  C    3.833573   4.755419   2.822949   2.706965   4.688918
    12  C    5.013674   5.189179   2.833787   4.050958   5.943131
    13  H    4.050763   5.632101   3.890500   2.356154   4.706310
    14  H    5.958704   6.281220   3.893205   4.717717   6.823991
    15  H    5.284580   4.720551   2.239461   4.740732   6.305258
    16  C    2.585627   2.706965   4.688918   4.755419   2.822949
    17  C    3.104994   4.050958   5.943131   5.189179   2.833787
    18  H    3.507622   2.356154   4.706310   5.632101   3.890500
    19  H    4.200536   4.717717   6.823991   6.281220   3.893205
    20  H    2.876010   4.740732   6.305258   4.720551   2.239461
                   11         12         13         14         15
    11  C    0.000000
    12  C    1.344018   0.000000
    13  H    1.099755   2.116328   0.000000
    14  H    2.135993   1.096643   2.466308   0.000000
    15  H    2.146100   1.094041   3.111339   1.849457   0.000000
    16  C    5.899165   6.811015   6.396955   7.874427   6.709015
    17  C    6.811015   7.848088   7.144776   8.874830   7.862306
    18  H    6.396955   7.144776   7.032840   8.235091   6.875066
    19  H    7.874427   8.874830   8.235091   9.916550   8.829781
    20  H    6.709015   7.862306   6.875066   8.829781   8.027023
                   16         17         18         19         20
    16  C    0.000000
    17  C    1.344018   0.000000
    18  H    1.099755   2.116328   0.000000
    19  H    2.135993   1.096643   2.466308   0.000000
    20  H    2.146100   1.094041   3.111339   1.849457   0.000000
 Stoichiometry    C10H10
 Framework group  C2H[SGH(C10H10)]
 Deg. of freedom    19
 Full point group                 C2H     NOp   4
 RotChk:  IX=0 Diff= 7.54D-02
 Largest Abelian subgroup         C2H     NOp   4
 Largest concise Abelian subgroup C2      NOp   2
                         Standard orientation:                         
 ---------------------------------------------------------------------
 Center     Atomic      Atomic             Coordinates (Angstroms)
 Number     Number       Type             X           Y           Z
 ---------------------------------------------------------------------
      1          6           0        1.232639    0.736220    0.000000
      2          6           0       -0.021241    1.406158    0.000000
      3          6           0       -1.232639    0.686614    0.000000
      4          6           0       -1.232639   -0.736220    0.000000
      5          6           0        0.021241   -1.406158    0.000000
      6          6           0        1.232639   -0.686614    0.000000
      7          1           0       -0.041896    2.503806    0.000000
      8          1           0       -2.178983    1.236727    0.000000
      9          1           0        0.041896   -2.503806    0.000000
     10          1           0        2.178983   -1.236727    0.000000
     11          6           0       -2.498210   -1.568114    0.000000
     12          6           0       -3.762862   -1.113097    0.000000
     13          1           0       -2.309619   -2.651579    0.000000
     14          1           0       -4.622182   -1.794416    0.000000
     15          1           0       -4.013223   -0.048088    0.000000
     16          6           0        2.498210    1.568114    0.000000
     17          6           0        3.762862    1.113097    0.000000
     18          1           0        2.309619    2.651579    0.000000
     19          1           0        4.622182    1.794416    0.000000
     20          1           0        4.013223    0.048088    0.000000
 ---------------------------------------------------------------------
 Rotational constants (GHZ):           4.6168601           0.6775871           0.5908690
 Leave Link  202 at Sun Jun 29 23:44:11 2025, MaxMem=   104857600 cpu:               0.0 elap:               0.0
 (Enter /home/eric/data/opt/apps/gaussian/g16A.03/g16/l301.exe)
 Standard basis: STO-3G (5D, 7F)
 Ernie: Thresh=  0.10000D-02 Tol=  0.10000D-05 Strict=F.
 There are    25 symmetry adapted cartesian basis functions of AG  symmetry.
 There are     5 symmetry adapted cartesian basis functions of BG  symmetry.
 There are     5 symmetry adapted cartesian basis functions of AU  symmetry.
 There are    25 symmetry adapted cartesian basis functions of BU  symmetry.
 There are    25 symmetry adapted basis functions of AG  symmetry.
 There are     5 symmetry adapted basis functions of BG  symmetry.
 There are     5 symmetry adapted basis functions of AU  symmetry.
 There are    25 symmetry adapted basis functions of BU  symmetry.
    60 basis functions,   180 primitive gaussians,    60 cartesian basis functions
    35 alpha electrons       35 beta electrons
       nuclear repulsion energy       444.3660678747 Hartrees.
 IExCor=  402 DFT=T Ex+Corr=B3LYP ExCW=0 ScaHFX=  0.200000
 ScaDFX=  0.800000  0.720000  1.000000  0.810000 ScalE2=  1.000000  1.000000
 IRadAn=      5 IRanWt=     -1 IRanGd=            0 ICorTp=0 IEmpDi=  4
 NAtoms=   20 NActive=   20 NUniq=   10 SFac= 4.00D+00 NAtFMM=   60 NAOKFM=F Big=F
 Integral buffers will be    131072 words long.
 Raffenetti 2 integral format.
 Two-electron integral symmetry is turned on.
 Leave Link  301 at Sun Jun 29 23:44:11 2025, MaxMem=   104857600 cpu:               0.0 elap:               0.0
 (Enter /home/eric/data/opt/apps/gaussian/g16A.03/g16/l302.exe)
 NPDir=0 NMtPBC=     1 NCelOv=     1 NCel=       1 NClECP=     1 NCelD=      1
         NCelK=      1 NCelE2=     1 NClLst=     1 CellRange=     0.0.
 One-electron integrals computed using PRISM.
 One-electron integral symmetry used in STVInt
 NBasis=    60 RedAO= T EigKep=  1.83D-01  NBF=    25     5     5    25
 NBsUse=    60 1.00D-06 EigRej= -1.00D+00 NBFU=    25     5     5    25
 Precomputing XC quadrature grid using
 IXCGrd= 4 IRadAn=           5 IRanWt=          -1 IRanGd=           0 AccXCQ= 0.00D+00.
 Generated NRdTot=       0 NPtTot=           0 NUsed=           0 NTot=          32
 NSgBfM=    59    59    59    59    59 MxSgAt=    20 MxSgA2=    20.
 Leave Link  302 at Sun Jun 29 23:44:11 2025, MaxMem=   104857600 cpu:               0.3 elap:               0.3
 (Enter /home/eric/data/opt/apps/gaussian/g16A.03/g16/l303.exe)
 DipDrv:  MaxL=1.
 Leave Link  303 at Sun Jun 29 23:44:11 2025, MaxMem=   104857600 cpu:               0.0 elap:               0.0
 (Enter /home/eric/data/opt/apps/gaussian/g16A.03/g16/l401.exe)
 Initial guess from the checkpoint file:  "dvb_gopt_qchem.chk"
 B after Tr=     0.000000    0.000000    0.000000
         Rot=    0.999713   -0.000000   -0.000000   -0.023959 Ang=  -2.75 deg.
 Guess basis will be translated and rotated to current coordinates.
 JPrj=2 DoOrth=T DoCkMO=T.
 Initial guess orbital symmetries:
       Occupied  (BU) (AG) (BU) (AG) (BU) (AG) (BU) (AG) (BU) (AG)
                 (AG) (BU) (AG) (BU) (BU) (AG) (AG) (BU) (AG) (AG)
                 (BU) (BU) (BU) (AG) (BU) (BU) (AG) (AU) (BU) (AG)
                 (AG) (BG) (AU) (BG) (BG)
       Virtual   (AU) (AU) (BG) (AU) (BG) (AG) (BU) (BU) (AG) (BU)
                 (AG) (BU) (AG) (BU) (AG) (AG) (BU) (AG) (BU) (BU)
                 (AG) (AG) (BU) (AG) (BU)
 The electronic state of the initial guess is 1-AG.
 Generating alternative initial guess.
 ExpMin= 1.69D-01 ExpMax= 7.16D+01 ExpMxC= 7.16D+01 IAcc=2 IRadAn=         4 AccDes= 0.00D+00
 Harris functional with IExCor=  402 and IRadAn=       4 diagonalized for initial guess.
 HarFok:  IExCor=  402 AccDes= 0.00D+00 IRadAn=         4 IDoV= 1 UseB2=F ITyADJ=14
 ICtDFT=  3500011 ScaDFX=  1.000000  1.000000  1.000000  1.000000
 FoFCou: FMM=F IPFlag=           0 FMFlag=      100000 FMFlg1=           0
         NFxFlg=           0 DoJE=T BraDBF=F KetDBF=T FulRan=T
         wScrn=  0.000000 ICntrl=       500 IOpCl=  0 I1Cent=   200000004 NGrid=           0
         NMat0=    1 NMatS0=      1 NMatT0=    0 NMatD0=    1 NMtDS0=    0 NMtDT0=    0
 Petite list used in FoFCou.
 Harris En= -382.204873691809    
 Leave Link  401 at Sun Jun 29 23:44:11 2025, MaxMem=   104857600 cpu:               0.3 elap:               0.3
 (Enter /home/eric/data/opt/apps/gaussian/g16A.03/g16/l502.exe)
 Keep R1 ints in memory in symmetry-blocked form, NReq=2566258.
 FoFCou: FMM=F IPFlag=           0 FMFlag=           0 FMFlg1=           0
         NFxFlg=           0 DoJE=F BraDBF=F KetDBF=F FulRan=T
         wScrn=  0.000000 ICntrl=       600 IOpCl=  0 I1Cent=           0 NGrid=           0
         NMat0=    1 NMatS0=   1830 NMatT0=    0 NMatD0=    1 NMtDS0=    0 NMtDT0=    0
 Petite list used in FoFCou.
 Closed shell SCF:
 Using DIIS extrapolation, IDIIS=  1040.
 NGot=   104857600 LenX=   104337711 LenY=   104333670
 Requested convergence on RMS density matrix=1.00D-08 within 128 cycles.
 Requested convergence on MAX density matrix=1.00D-06.
 Requested convergence on             energy=1.00D-06.
 No special actions if energy rises.
 Integral accuracy reduced to 1.0D-05 until final iterations.

 Cycle   1  Pass 0  IDiag  1:
 E= -382.300290897942    
 DIIS: error= 7.44D-03 at cycle   1 NSaved=   1.
 NSaved= 1 IEnMin= 1 EnMin= -382.300290897942     IErMin= 1 ErrMin= 7.44D-03
 ErrMax= 7.44D-03  0.00D+00 EMaxC= 1.00D-01 BMatC= 3.56D-03 BMatP= 3.56D-03
 IDIUse=3 WtCom= 9.26D-01 WtEn= 7.44D-02
 Coeff-Com:  0.100D+01
 Coeff-En:   0.100D+01
 Coeff:      0.100D+01
 Gap=     0.195 Goal=   None    Shift=    0.000
 GapD=    0.195 DampG=1.000 DampE=1.000 DampFc=1.0000 IDamp=-1.
 RMSDP=2.13D-03 MaxDP=2.26D-02              OVMax= 1.09D-02

 Cycle   2  Pass 0  IDiag  1:
 E= -382.307592169292     Delta-E=       -0.007301271350 Rises=F Damp=F
 DIIS: error= 7.09D-04 at cycle   2 NSaved=   2.
 NSaved= 2 IEnMin= 2 EnMin= -382.307592169292     IErMin= 2 ErrMin= 7.09D-04
 ErrMax= 7.09D-04  0.00D+00 EMaxC= 1.00D-01 BMatC= 2.88D-05 BMatP= 3.56D-03
 IDIUse=3 WtCom= 9.93D-01 WtEn= 7.09D-03
 Coeff-Com: -0.691D-01 0.107D+01
 Coeff-En:   0.000D+00 0.100D+01
 Coeff:     -0.686D-01 0.107D+01
 Gap=     0.194 Goal=   None    Shift=    0.000
 RMSDP=2.41D-04 MaxDP=2.12D-03 DE=-7.30D-03 OVMax= 1.59D-03

 Cycle   3  Pass 0  IDiag  1:
 E= -382.307631955020     Delta-E=       -0.000039785728 Rises=F Damp=F
 DIIS: error= 5.71D-04 at cycle   3 NSaved=   3.
 NSaved= 3 IEnMin= 3 EnMin= -382.307631955020     IErMin= 3 ErrMin= 5.71D-04
 ErrMax= 5.71D-04  0.00D+00 EMaxC= 1.00D-01 BMatC= 1.60D-05 BMatP= 2.88D-05
 IDIUse=3 WtCom= 9.94D-01 WtEn= 5.71D-03
 Coeff-Com: -0.390D-01 0.556D+00 0.483D+00
 Coeff-En:   0.000D+00 0.000D+00 0.100D+01
 Coeff:     -0.388D-01 0.553D+00 0.486D+00
 Gap=     0.194 Goal=   None    Shift=    0.000
 RMSDP=9.47D-05 MaxDP=1.69D-03 DE=-3.98D-05 OVMax= 9.19D-04

 Cycle   4  Pass 0  IDiag  1:
 E= -382.307650565017     Delta-E=       -0.000018609997 Rises=F Damp=F
 DIIS: error= 1.58D-04 at cycle   4 NSaved=   4.
 NSaved= 4 IEnMin= 4 EnMin= -382.307650565017     IErMin= 4 ErrMin= 1.58D-04
 ErrMax= 1.58D-04  0.00D+00 EMaxC= 1.00D-01 BMatC= 1.07D-06 BMatP= 1.60D-05
 IDIUse=3 WtCom= 9.98D-01 WtEn= 1.58D-03
 Coeff-Com: -0.129D-01 0.174D+00 0.244D+00 0.595D+00
 Coeff-En:   0.000D+00 0.000D+00 0.000D+00 0.100D+01
 Coeff:     -0.128D-01 0.174D+00 0.243D+00 0.596D+00
 Gap=     0.194 Goal=   None    Shift=    0.000
 RMSDP=2.99D-05 MaxDP=7.02D-04 DE=-1.86D-05 OVMax= 5.68D-04

 Cycle   5  Pass 0  IDiag  1:
 E= -382.307651704090     Delta-E=       -0.000001139073 Rises=F Damp=F
 DIIS: error= 7.84D-05 at cycle   5 NSaved=   5.
 NSaved= 5 IEnMin= 5 EnMin= -382.307651704090     IErMin= 5 ErrMin= 7.84D-05
 ErrMax= 7.84D-05  0.00D+00 EMaxC= 1.00D-01 BMatC= 1.89D-07 BMatP= 1.07D-06
 IDIUse=1 WtCom= 1.00D+00 WtEn= 0.00D+00
 Coeff-Com: -0.158D-02 0.172D-01 0.664D-01 0.345D+00 0.573D+00
 Coeff:     -0.158D-02 0.172D-01 0.664D-01 0.345D+00 0.573D+00
 Gap=     0.194 Goal=   None    Shift=    0.000
 RMSDP=1.10D-05 MaxDP=2.35D-04 DE=-1.14D-06 OVMax= 2.61D-04

 Cycle   6  Pass 0  IDiag  1:
 E= -382.307651953626     Delta-E=       -0.000000249535 Rises=F Damp=F
 DIIS: error= 1.52D-05 at cycle   6 NSaved=   6.
 NSaved= 6 IEnMin= 6 EnMin= -382.307651953626     IErMin= 6 ErrMin= 1.52D-05
 ErrMax= 1.52D-05  0.00D+00 EMaxC= 1.00D-01 BMatC= 1.26D-08 BMatP= 1.89D-07
 IDIUse=1 WtCom= 1.00D+00 WtEn= 0.00D+00
 Coeff-Com:  0.719D-04-0.308D-02 0.181D-01 0.140D+00 0.303D+00 0.542D+00
 Coeff:      0.719D-04-0.308D-02 0.181D-01 0.140D+00 0.303D+00 0.542D+00
 Gap=     0.194 Goal=   None    Shift=    0.000
 RMSDP=2.56D-06 MaxDP=3.97D-05 DE=-2.50D-07 OVMax= 4.65D-06

 Initial convergence to 1.0D-05 achieved.  Increase integral accuracy.
 Cycle   7  Pass 1  IDiag  1:
 E= -382.307652304506     Delta-E=       -0.000000350880 Rises=F Damp=F
 DIIS: error= 1.75D-06 at cycle   1 NSaved=   1.
 NSaved= 1 IEnMin= 1 EnMin= -382.307652304506     IErMin= 1 ErrMin= 1.75D-06
 ErrMax= 1.75D-06  0.00D+00 EMaxC= 1.00D-01 BMatC= 3.28D-10 BMatP= 3.28D-10
 IDIUse=1 WtCom= 1.00D+00 WtEn= 0.00D+00
 Coeff-Com:  0.100D+01
 Coeff:      0.100D+01
 Gap=     0.194 Goal=   None    Shift=    0.000
 RMSDP=2.56D-06 MaxDP=3.97D-05 DE=-3.51D-07 OVMax= 2.76D-06

 Cycle   8  Pass 1  IDiag  1:
 E= -382.307652304614     Delta-E=       -0.000000000108 Rises=F Damp=F
 DIIS: error= 2.21D-06 at cycle   2 NSaved=   2.
 NSaved= 2 IEnMin= 2 EnMin= -382.307652304614     IErMin= 1 ErrMin= 1.75D-06
 ErrMax= 2.21D-06  0.00D+00 EMaxC= 1.00D-01 BMatC= 3.00D-10 BMatP= 3.28D-10
 IDIUse=1 WtCom= 1.00D+00 WtEn= 0.00D+00
 Coeff-Com:  0.488D+00 0.512D+00
 Coeff:      0.488D+00 0.512D+00
 Gap=     0.194 Goal=   None    Shift=    0.000
 RMSDP=4.12D-07 MaxDP=5.66D-06 DE=-1.08D-10 OVMax= 3.93D-06

 Cycle   9  Pass 1  IDiag  1:
 E= -382.307652304987     Delta-E=       -0.000000000373 Rises=F Damp=F
 DIIS: error= 4.71D-07 at cycle   3 NSaved=   3.
 NSaved= 3 IEnMin= 3 EnMin= -382.307652304987     IErMin= 3 ErrMin= 4.71D-07
 ErrMax= 4.71D-07  0.00D+00 EMaxC= 1.00D-01 BMatC= 8.66D-12 BMatP= 3.00D-10
 IDIUse=1 WtCom= 1.00D+00 WtEn= 0.00D+00
 Coeff-Com:  0.145D+00 0.208D+00 0.647D+00
 Coeff:      0.145D+00 0.208D+00 0.647D+00
 Gap=     0.194 Goal=   None    Shift=    0.000
 RMSDP=7.98D-08 MaxDP=1.37D-06 DE=-3.73D-10 OVMax= 2.76D-07

 Cycle  10  Pass 1  IDiag  1:
 E= -382.307652304999     Delta-E=       -0.000000000012 Rises=F Damp=F
 DIIS: error= 1.38D-07 at cycle   4 NSaved=   4.
 NSaved= 4 IEnMin= 4 EnMin= -382.307652304999     IErMin= 4 ErrMin= 1.38D-07
 ErrMax= 1.38D-07  0.00D+00 EMaxC= 1.00D-01 BMatC= 1.04D-12 BMatP= 8.66D-12
 IDIUse=1 WtCom= 1.00D+00 WtEn= 0.00D+00
 Coeff-Com:  0.688D-02 0.320D-01 0.289D+00 0.672D+00
 Coeff:      0.688D-02 0.320D-01 0.289D+00 0.672D+00
 Gap=     0.194 Goal=   None    Shift=    0.000
 RMSDP=2.52D-08 MaxDP=4.17D-07 DE=-1.21D-11 OVMax= 2.36D-07

 Cycle  11  Pass 1  IDiag  1:
 E= -382.307652305000     Delta-E=       -0.000000000000 Rises=F Damp=F
 DIIS: error= 5.07D-08 at cycle   5 NSaved=   5.
 NSaved= 5 IEnMin= 5 EnMin= -382.307652305000     IErMin= 5 ErrMin= 5.07D-08
 ErrMax= 5.07D-08  0.00D+00 EMaxC= 1.00D-01 BMatC= 9.56D-14 BMatP= 1.04D-12
 IDIUse=1 WtCom= 1.00D+00 WtEn= 0.00D+00
 Coeff-Com: -0.432D-02 0.410D-02 0.109D+00 0.337D+00 0.555D+00
 Coeff:     -0.432D-02 0.410D-02 0.109D+00 0.337D+00 0.555D+00
 Gap=     0.194 Goal=   None    Shift=    0.000
 RMSDP=8.88D-09 MaxDP=2.17D-07 DE=-4.55D-13 OVMax= 1.43D-07

 SCF Done:  E(RB3LYP) =  -382.307652305     A.U. after   11 cycles
            NFock= 11  Conv=0.89D-08     -V/T= 2.0173
 KE= 3.757960641095D+02 PE=-1.773331096193D+03 EE= 5.708613119042D+02
 Leave Link  502 at Sun Jun 29 23:44:14 2025, MaxMem=   104857600 cpu:               2.9 elap:               2.9
 (Enter /home/eric/data/opt/apps/gaussian/g16A.03/g16/l701.exe)
 ... and contract with generalized density number  0.
 Compute integral first derivatives.
 Leave Link  701 at Sun Jun 29 23:44:14 2025, MaxMem=   104857600 cpu:               0.1 elap:               0.0
 (Enter /home/eric/data/opt/apps/gaussian/g16A.03/g16/l702.exe)
 L702 exits ... SP integral derivatives will be done elsewhere.
 Leave Link  702 at Sun Jun 29 23:44:14 2025, MaxMem=   104857600 cpu:               0.0 elap:               0.0
 (Enter /home/eric/data/opt/apps/gaussian/g16A.03/g16/l703.exe)
 Integral derivatives from FoFJK, PRISM(SPDF).
 Compute integral first derivatives, UseDBF=F ICtDFT=           0.
 Calling FoFJK, ICntrl=      2127 FMM=F ISym2X=1 I1Cent= 0 IOpClX= 0 NMat=1 NMatS=1 NMatT=0.
 FoFJK:  IHMeth= 1 ICntrl=    2127 DoSepK=F KAlg= 0 I1Cent=           0 FoldK=F
 IRaf=         0 NMat=       1 IRICut=       1 DoRegI=T DoRafI=F ISym2E= 1 IDoP0=0 IntGTp=1.
 FoFCou: FMM=F IPFlag=           0 FMFlag=      100000 FMFlg1=         800
         NFxFlg=           0 DoJE=F BraDBF=F KetDBF=F FulRan=T
         wScrn=  0.000000 ICntrl=      2127 IOpCl=  0 I1Cent=           0 NGrid=           0
         NMat0=    1 NMatS0=      1 NMatT0=    0 NMatD0=    1 NMtDS0=    0 NMtDT0=    0
 Petite list used in FoFCou.
 Leave Link  703 at Sun Jun 29 23:44:15 2025, MaxMem=   104857600 cpu:               0.9 elap:               0.9
 (Enter /home/eric/data/opt/apps/gaussian/g16A.03/g16/l716.exe)
 Dipole        = 8.88178420D-16 8.56259508D-15 0.00000000D+00
 ***** Axes restored to original set *****
 -------------------------------------------------------------------
 Center     Atomic                   Forces (Hartrees/Bohr)
 Number     Number              X              Y              Z
 -------------------------------------------------------------------
      1        6          -0.000100497   -0.009406647   -0.000000000
      2        6          -0.002928832    0.006638573   -0.000000000
      3        6          -0.002718026   -0.006554939   -0.000000000
      4        6           0.000100497    0.009406647   -0.000000000
      5        6           0.002928832   -0.006638573   -0.000000000
      6        6           0.002718026    0.006554939   -0.000000000
      7        1           0.000557308   -0.000135498   -0.000000000
      8        1           0.001494504    0.002268682   -0.000000000
      9        1          -0.000557308    0.000135498   -0.000000000
     10        1          -0.001494504   -0.002268682   -0.000000000
     11        6           0.002837202   -0.009853814   -0.000000000
     12        6          -0.000737193    0.000548580   -0.000000000
     13        1          -0.000267068    0.001619363   -0.000000000
     14        1          -0.001615475   -0.000650421   -0.000000000
     15        1           0.001652358   -0.001875304   -0.000000000
     16        6          -0.002837202    0.009853814   -0.000000000
     17        6           0.000737193   -0.000548580   -0.000000000
     18        1           0.000267068   -0.001619363   -0.000000000
     19        1           0.001615475    0.000650421   -0.000000000
     20        1          -0.001652358    0.001875304   -0.000000000
[...]
 ! D32   D(9,5,6,10)             0.0            -DE/DX =    0.0                 !
 ! D33   D(4,11,12,14)         180.0            -DE/DX =    0.0                 !
 ! D34   D(4,11,12,15)           0.0            -DE/DX =    0.0                 !
 ! D35   D(13,11,12,14)          0.0            -DE/DX =    0.0                 !
 ! D36   D(13,11,12,15)        180.0            -DE/DX =    0.0                 !
 ! D37   D(1,16,17,19)         180.0            -DE/DX =    0.0                 !
 ! D38   D(1,16,17,20)           0.0            -DE/DX =    0.0                 !
 ! D39   D(18,16,17,19)          0.0            -DE/DX =    0.0                 !
 ! D40   D(18,16,17,20)        180.0            -DE/DX =    0.0                 !
 --------------------------------------------------------------------------------
 Lowest energy point so far.  Saving SCF results.
 Largest change from initial coordinates is atom   19       0.296 Angstoms.
 GradGradGradGradGradGradGradGradGradGradGradGradGradGradGradGradGradGrad

 Leave Link  103 at Sun Jun 29 23:44:29 2025, MaxMem=   104857600 cpu:               0.0 elap:               0.0
 (Enter /home/eric/data/opt/apps/gaussian/g16A.03/g16/l202.exe)
                          Input orientation:                          
 ---------------------------------------------------------------------
 Center     Atomic      Atomic             Coordinates (Angstroms)
 Number     Number       Type             X           Y           Z
 ---------------------------------------------------------------------
      1          6           0        0.239628   -1.415535    0.000000
      2          6           0        1.315450   -0.484915    0.000000
      3          6           0        1.084001    0.898010    0.000000
      4          6           0       -0.239628    1.415535    0.000000
      5          6           0       -1.315450    0.484915    0.000000
      6          6           0       -1.084001   -0.898010    0.000000
      7          1           0        2.347086   -0.862740    0.000000
      8          1           0        1.938403    1.586973    0.000000
      9          1           0       -2.347086    0.862740    0.000000
     10          1           0       -1.938403   -1.586973    0.000000
     11          6           0       -0.543079    2.882020    0.000000
     12          6           0        0.351327    3.885617    0.000000
     13          1           0       -1.616399    3.124837    0.000000
     14          1           0        0.029533    4.933535    0.000000
     15          1           0        1.433667    3.713132    0.000000
     16          6           0        0.543079   -2.882020    0.000000
     17          6           0       -0.351327   -3.885617    0.000000
     18          1           0        1.616399   -3.124837    0.000000
     19          1           0       -0.029533   -4.933535    0.000000
     20          1           0       -1.433667   -3.713132    0.000000
 ---------------------------------------------------------------------
                    Distance matrix (angstroms):
                    1          2          3          4          5
     1  C    0.000000
     2  C    1.422479   0.000000
     3  C    2.462815   1.402160   0.000000
     4  C    2.871349   2.455602   1.421205   0.000000
     5  C    2.455602   2.803963   2.434751   1.422479   0.000000
     6  C    1.421205   2.434751   2.815301   2.462815   1.402160
     7  H    2.178753   1.098647   2.166939   3.446973   3.902608
     8  H    3.449767   2.163514   1.097576   2.184767   3.435417
     9  H    3.446973   3.902608   3.431268   2.178753   1.098647
    10  H    2.184767   3.435417   3.912808   3.449767   2.163514
    11  C    4.368250   3.845827   2.565869   1.497552   2.518465
    12  C    5.302329   4.475610   3.076135   2.539790   3.787204
    13  H    4.905081   4.650382   3.500131   2.194815   2.657021
    14  H    6.352545   5.568948   4.171014   3.528281   4.647493
    15  H    5.265829   4.199711   2.836755   2.842335   4.240169
    16  C    1.497552   2.518465   3.818537   4.368250   3.845827
    17  C    2.539790   3.787204   4.994322   5.302329   4.475610
    18  H    2.194815   2.657021   4.057924   4.905081   4.650382
    19  H    3.528281   4.647493   5.936908   6.352545   5.568948
    20  H    2.842335   4.240169   5.253693   5.265829   4.199711
                    6          7          8          9         10
     6  C    0.000000
     7  H    3.431268   0.000000
     8  H    3.912808   2.483570   0.000000
     9  H    2.166939   5.001253   4.346255   0.000000
    10  H    1.097576   4.346255   5.010346   2.483570   0.000000
    11  C    3.818537   4.730357   2.799089   2.707754   4.681755
    12  C    4.994322   5.150723   2.793309   4.052063   5.932294
    13  H    4.057924   5.622276   3.873195   2.377181   4.722801
    14  H    5.936908   6.242424   3.852695   4.713777   6.811006
    15  H    5.253693   4.666148   2.185248   4.734853   6.281877
    16  C    2.565869   2.707754   4.681755   4.730357   2.799089
    17  C    3.076135   4.052063   5.932294   5.150723   2.793309
    18  H    3.500131   2.377181   4.722801   5.622276   3.873195
    19  H    4.171014   4.713777   6.811006   6.242424   3.852695
    20  H    2.836755   4.734853   6.281877   4.666148   2.185248
                   11         12         13         14         15
    11  C    0.000000
    12  C    1.344309   0.000000
    13  H    1.100443   2.109675   0.000000
    14  H    2.129929   1.096213   2.445502   0.000000
    15  H    2.144358   1.095999   3.106283   1.860370   0.000000
    16  C    5.865483   6.770353   6.383234   7.832409   6.655011
    17  C    6.770353   7.802935   7.123684   8.827372   7.805587
    18  H    6.383234   7.123684   7.036293   8.213130   6.840411
    19  H    7.832409   8.827372   8.213130   9.867246   8.769595
    20  H    6.655011   7.805587   6.840411   8.769595   7.960591
                   16         17         18         19         20
    16  C    0.000000
    17  C    1.344309   0.000000
    18  H    1.100443   2.109675   0.000000
    19  H    2.129929   1.096213   2.445502   0.000000
    20  H    2.144358   1.095999   3.106283   1.860370   0.000000
 Stoichiometry    C10H10
 Framework group  C2H[SGH(C10H10)]
 Deg. of freedom    19
 Full point group                 C2H     NOp   4
 RotChk:  IX=0 Diff= 2.56D-16
 Largest Abelian subgroup         C2H     NOp   4
 Largest concise Abelian subgroup C2      NOp   2
                         Standard orientation:                         
 ---------------------------------------------------------------------
 Center     Atomic      Atomic             Coordinates (Angstroms)
 Number     Number       Type             X           Y           Z
 ---------------------------------------------------------------------
      1          6           0        1.231088    0.738635    0.000000
      2          6           0       -0.027393    1.401714    0.000000
      3          6           0       -1.231088    0.682570    0.000000
      4          6           0       -1.231088   -0.738635    0.000000
      5          6           0        0.027393   -1.401714    0.000000
      6          6           0        1.231088   -0.682570    0.000000
      7          1           0       -0.051174    2.500103    0.000000
      8          1           0       -2.183875    1.227428    0.000000
      9          1           0        0.051174   -2.500103    0.000000
     10          1           0        2.183875   -1.227428    0.000000
     11          6           0       -2.486387   -1.555266    0.000000
     12          6           0       -3.746773   -1.087723    0.000000
     13          1           0       -2.321689   -2.643315    0.000000
     14          1           0       -4.605564   -1.769017    0.000000
     15          1           0       -3.980260   -0.016884    0.000000
     16          6           0        2.486387    1.555266    0.000000
     17          6           0        3.746773    1.087723    0.000000
     18          1           0        2.321689    2.643315    0.000000
     19          1           0        4.605564    1.769017    0.000000
     20          1           0        3.980260    0.016884    0.000000
 ---------------------------------------------------------------------
 Rotational constants (GHZ):           4.6266251           0.6848880           0.5965758
 Leave Link  202 at Sun Jun 29 23:44:29 2025, MaxMem=   104857600 cpu:               0.0 elap:               0.0
 (Enter /home/eric/data/opt/apps/gaussian/g16A.03/g16/l601.exe)
 Copying SCF densities to generalized density rwf, IOpCl= 0 IROHF=0.

 **********************************************************************

            Population analysis using the SCF density.

 **********************************************************************

 Orbital symmetries:
       Occupied  (BU) (AG) (BU) (AG) (BU) (AG) (BU) (AG) (BU) (AG)
                 (AG) (BU) (AG) (BU) (BU) (AG) (AG) (BU) (AG) (AG)
                 (BU) (BU) (BU) (AG) (BU) (BU) (AG) (AU) (BU) (AG)
                 (AG) (BG) (AU) (BG) (BG)
       Virtual   (AU) (AU) (BG) (AU) (BG) (AG) (BU) (BU) (AG) (AG)
                 (BU) (BU) (AG) (BU) (AG) (AG) (BU) (AG) (BU) (BU)
                 (AG) (AG) (BU) (AG) (BU)
 The electronic state is 1-AG.
 Alpha  occ. eigenvalues --  -10.02022 -10.02017 -10.00812 -10.00811 -10.00679
 Alpha  occ. eigenvalues --  -10.00678 -10.00605 -10.00591  -9.99233  -9.99233
 Alpha  occ. eigenvalues --   -0.80950  -0.75398  -0.71796  -0.69978  -0.66750
 Alpha  occ. eigenvalues --   -0.58870  -0.55892  -0.53166  -0.51018  -0.45744
 Alpha  occ. eigenvalues --   -0.43936  -0.41061  -0.39795  -0.39607  -0.37397
 Alpha  occ. eigenvalues --   -0.35114  -0.34728  -0.32450  -0.31126  -0.29280
 Alpha  occ. eigenvalues --   -0.28745  -0.26354  -0.21244  -0.19505  -0.15307
 Alpha virt. eigenvalues --    0.03740   0.09037   0.11060   0.18220   0.27252
 Alpha virt. eigenvalues --    0.33225   0.34075   0.37940   0.38146   0.41097
 Alpha virt. eigenvalues --    0.41197   0.42675   0.43961   0.45273   0.47825
 Alpha virt. eigenvalues --    0.52625   0.54577   0.57600   0.59945   0.62499
 Alpha virt. eigenvalues --    0.63967   0.68282   0.71718   0.77951   0.79456
          Condensed to atoms (all electrons):
               1          2          3          4          5          6
     1  C    4.778683   0.488788  -0.026974  -0.009772  -0.027150   0.488298
     2  C    0.488788   4.815064   0.508965  -0.027150  -0.011069  -0.030713
     3  C   -0.026974   0.508965   4.810703   0.488298  -0.030713  -0.010501
     4  C   -0.009772  -0.027150   0.488298   4.778683   0.488788  -0.026974
     5  C   -0.027150  -0.011069  -0.030713   0.488788   4.815064   0.508965
     6  C    0.488298  -0.030713  -0.010501  -0.026974   0.508965   4.810703
     7  H   -0.025298   0.387927  -0.025217   0.001335   0.000039   0.001342
     8  H    0.001330  -0.025273   0.387890  -0.024563   0.001346   0.000032
     9  H    0.001335   0.000039   0.001342  -0.025298   0.387927  -0.025217
    10  H   -0.024563   0.001346   0.000032   0.001330  -0.025273   0.387890
    11  C    0.000016   0.000749  -0.024067   0.411879  -0.028767   0.000818
    12  C    0.000000   0.000015  -0.003964  -0.023790   0.000680  -0.000007
    13  H   -0.000001  -0.000017   0.001086  -0.026067  -0.003962   0.000022
    14  H    0.000000   0.000000   0.000018   0.001320  -0.000016   0.000000
    15  H   -0.000000  -0.000012  -0.000561  -0.003530   0.000012  -0.000000
    16  C    0.411879  -0.028767   0.000818   0.000016   0.000749  -0.024067
    17  C   -0.023790   0.000680  -0.000007   0.000000   0.000015  -0.003964
    18  H   -0.026067  -0.003962   0.000022  -0.000001  -0.000017   0.001086
    19  H    0.001320  -0.000016   0.000000   0.000000   0.000000   0.000018
    20  H   -0.003530   0.000012  -0.000000  -0.000000  -0.000012  -0.000561
               7          8          9         10         11         12
     1  C   -0.025298   0.001330   0.001335  -0.024563   0.000016   0.000000
     2  C    0.387927  -0.025273   0.000039   0.001346   0.000749   0.000015
     3  C   -0.025217   0.387890   0.001342   0.000032  -0.024067  -0.003964
     4  C    0.001335  -0.024563  -0.025298   0.001330   0.411879  -0.023790
     5  C    0.000039   0.001346   0.387927  -0.025273  -0.028767   0.000680
     6  C    0.001342   0.000032  -0.025217   0.387890   0.000818  -0.000007
     7  H    0.588894  -0.003828   0.000002  -0.000034  -0.000014   0.000000
     8  H   -0.003828   0.586966  -0.000034   0.000002  -0.003038  -0.000605
     9  H    0.000002  -0.000034   0.588894  -0.003828  -0.003902   0.000029
    10  H   -0.000034   0.000002  -0.003828   0.586966  -0.000015   0.000000
    11  C   -0.000014  -0.003038  -0.003902  -0.000015   4.798261   0.586069
    12  C    0.000000  -0.000605   0.000029   0.000000   0.586069   4.849835
    13  H    0.000000   0.000019   0.001033  -0.000002   0.386248  -0.027666
    14  H   -0.000000  -0.000017  -0.000002  -0.000000  -0.024048   0.388269
    15  H    0.000002   0.000562   0.000001   0.000000  -0.023811   0.385948
    16  C   -0.003902  -0.000015  -0.000014  -0.003038   0.000000  -0.000000
    17  C    0.000029   0.000000   0.000000  -0.000605  -0.000000  -0.000000
    18  H    0.001033  -0.000002   0.000000   0.000019  -0.000000   0.000000
    19  H   -0.000002  -0.000000  -0.000000  -0.000017  -0.000000   0.000000
    20  H    0.000001   0.000000   0.000002   0.000562   0.000000   0.000000
              13         14         15         16         17         18
     1  C   -0.000001   0.000000  -0.000000   0.411879  -0.023790  -0.026067
     2  C   -0.000017   0.000000  -0.000012  -0.028767   0.000680  -0.003962
     3  C    0.001086   0.000018  -0.000561   0.000818  -0.000007   0.000022
     4  C   -0.026067   0.001320  -0.003530   0.000016   0.000000  -0.000001
     5  C   -0.003962  -0.000016   0.000012   0.000749   0.000015  -0.000017
     6  C    0.000022   0.000000  -0.000000  -0.024067  -0.003964   0.001086
     7  H    0.000000  -0.000000   0.000002  -0.003902   0.000029   0.001033
     8  H    0.000019  -0.000017   0.000562  -0.000015   0.000000  -0.000002
     9  H    0.001033  -0.000002   0.000001  -0.000014   0.000000   0.000000
    10  H   -0.000002  -0.000000   0.000000  -0.003038  -0.000605   0.000019
    11  C    0.386248  -0.024048  -0.023811   0.000000  -0.000000  -0.000000
    12  C   -0.027666   0.388269   0.385948  -0.000000  -0.000000   0.000000
    13  H    0.595474  -0.005093   0.002044  -0.000000   0.000000   0.000000
    14  H   -0.005093   0.583951  -0.023727  -0.000000   0.000000  -0.000000
    15  H    0.002044  -0.023727   0.586744   0.000000   0.000000  -0.000000
    16  C   -0.000000  -0.000000   0.000000   4.798261   0.586069   0.386248
    17  C    0.000000   0.000000   0.000000   0.586069   4.849835  -0.027666
    18  H    0.000000  -0.000000  -0.000000   0.386248  -0.027666   0.595474
    19  H   -0.000000  -0.000000   0.000000  -0.024048   0.388269  -0.005093
    20  H   -0.000000   0.000000  -0.000000  -0.023811   0.385948   0.002044
              19         20
     1  C    0.001320  -0.003530
     2  C   -0.000016   0.000012
     3  C    0.000000  -0.000000
     4  C    0.000000  -0.000000
     5  C    0.000000  -0.000012
     6  C    0.000018  -0.000561
     7  H   -0.000002   0.000001
     8  H   -0.000000   0.000000
     9  H   -0.000000   0.000002
    10  H   -0.000017   0.000562
    11  C   -0.000000   0.000000
    12  C    0.000000   0.000000
    13  H   -0.000000  -0.000000
    14  H   -0.000000   0.000000
    15  H    0.000000  -0.000000
    16  C   -0.024048  -0.023811
    17  C    0.388269   0.385948
    18  H   -0.005093   0.002044
    19  H    0.583951  -0.023727
    20  H   -0.023727   0.586744
 Mulliken charges:
               1
     1  C   -0.004504
     2  C   -0.076607
     3  C   -0.077169
     4  C   -0.004504
     5  C   -0.076607
     6  C   -0.077169
     7  H    0.077690
     8  H    0.079227
     9  H    0.077690
    10  H    0.079227
    11  C   -0.076377
    12  C   -0.154814
    13  H    0.076881
    14  H    0.079345
    15  H    0.076328
    16  C   -0.076377
    17  C   -0.154814
    18  H    0.076881
    19  H    0.079345
    20  H    0.076328
 Sum of Mulliken charges =  -0.00000
 Mulliken charges with hydrogens summed into heavy atoms:
               1
     1  C   -0.004504
     2  C    0.001084
     3  C    0.002058
     4  C   -0.004504
     5  C    0.001084
     6  C    0.002058
    11  C    0.000504
    12  C    0.000859
    16  C    0.000504
    17  C    0.000859
 Electronic spatial extent (au):  <R**2>=           1861.8356
 Charge=              0.0000 electrons
 Dipole moment (field-independent basis, Debye):
    X=             -0.0000    Y=              0.0000    Z=              0.0000  Tot=              0.0000
 Quadrupole moment (field-independent basis, Debye-Ang):
   XX=            -50.6959   YY=            -50.2418   ZZ=            -58.6254
   XY=             -0.1149   XZ=              0.0000   YZ=              0.0000
 Traceless Quadrupole moment (field-independent basis, Debye-Ang):
   XX=              2.4918   YY=              2.9459   ZZ=             -5.4377
   XY=             -0.1149   XZ=              0.0000   YZ=              0.0000
 Octapole moment (field-independent basis, Debye-Ang**2):
  XXX=             -0.0000  YYY=              0.0000  ZZZ=              0.0000  XYY=             -0.0000
  XXY=             -0.0000  XXZ=              0.0000  XZZ=             -0.0000  YZZ=              0.0000
  YYZ=              0.0000  XYZ=              0.0000
 Hexadecapole moment (field-independent basis, Debye-Ang**3):
 XXXX=          -1670.5291 YYYY=           -530.3463 ZZZZ=            -47.6116 XXXY=           -253.8418
 XXXZ=              0.0000 YYYX=           -258.2839 YYYZ=              0.0000 ZZZX=              0.0000
 ZZZY=              0.0000 XXYY=           -363.4107 XXZZ=           -328.7543 YYZZ=           -111.0630
 XXYZ=              0.0000 YYXZ=              0.0000 ZZXY=            -99.9368
 N-N= 4.458912989586D+02 E-N=-1.776398519388D+03  KE= 3.758471274157D+02
 Symmetry AG   KE= 1.814053746572D+02
 Symmetry BG   KE= 7.823298924930D+00
 Symmetry AU   KE= 4.696968860665D+00
 Symmetry BU   KE= 1.819214849729D+02
 No NMR shielding tensors so no spin-rotation constants.
 Leave Link  601 at Sun Jun 29 23:44:29 2025, MaxMem=   104857600 cpu:               0.0 elap:               0.0
 (Enter /home/eric/data/opt/apps/gaussian/g16A.03/g16/l9999.exe)
 1\1\GINC-OSMIUM\FOpt\RB3LYP\STO-3G\C10H10\ERIC\29-Jun-2025\0\\#p b3lyp
 /sto-3g opt\\dvb\\0,1\C,0.2396275735,-1.4155350739,0.\C,1.3154502928,-
 0.4849153296,0.\C,1.0840009695,0.8980101091,0.\C,-0.2396275735,1.41553
 50739,0.\C,-1.3154502928,0.4849153296,0.\C,-1.0840009695,-0.8980101091
 ,0.\H,2.3470862149,-0.8627400172,0.\H,1.9384030001,1.5869734293,0.\H,-
 2.3470862149,0.8627400172,0.\H,-1.9384030001,-1.5869734293,0.\C,-0.543
 0788364,2.8820199575,0.\C,0.3513265445,3.8856169198,0.\H,-1.6163987021
 ,3.1248374571,0.\H,0.0295333828,4.9335346791,0.\H,1.4336673866,3.71313
 19565,0.\C,0.5430788364,-2.8820199575,0.\C,-0.3513265445,-3.8856169198
 ,0.\H,1.6163987021,-3.1248374571,0.\H,-0.0295333828,-4.9335346791,0.\H
 ,-1.4336673866,-3.7131319565,0.\\Version=ES64L-G16RevA.03\State=1-AG\H
 F=-382.3082669\RMSD=2.199e-09\RMSF=1.605e-05\Dipole=0.,0.,0.\Quadrupol
 e=2.2033933,1.8394129,-4.0428062,-0.0517475,0.,0.\PG=C02H [SGH(C10H10)
 ]\\@


 THE ... SCIENTISTS WERE WRONG ... THE MOST PERSISTENT PRINCIPLES 
 OF THE UNIVERSE WERE ACCIDENT AND ERROR.

                          -- FRANK HERBERT IN DUNE
 Job cpu time:       0 days  0 hours  0 minutes 23.1 seconds.
 Elapsed time:       0 days  0 hours  0 minutes 23.4 seconds.
 File lengths (MBytes):  RWF=      6 Int=      0 D2E=      0 Chk=      2 Scr=      1
 Normal termination of Gaussian 16 at Sun Jun 29 23:44:29 2025.
