                  Welcome to Q-Chem
     A Quantum Leap Into The Future Of Chemistry


 Q-Chem 5.4 (devel), Q-Chem, Inc., Pleasanton, CA (2021)

 E. Epifanovsky,  A. T. B. Gilbert,  Xintian Feng,  Joonho Lee,  Yuezhi Mao,  
 N. Mardirossian,  P. Pokhilko,  A. White,  M. Wormit,  M. P. Coons,  
 A. L. Dempwolff,  Zhengting Gan,  D. Hait,  P. R. Horn,  L. D. Jacobson,  
 I. Kaliman,  J. Kussmann,  A. W. Lange,  Ka Un Lao,  D. S. Levine,  Jie Liu,  
 S. C. McKenzie,  A. F. Morrison,  K. Nanda,  F. Plasser,  D. R. Rehn,  
 M. L. Vidal,  Zhi-Qiang You,  Ying Zhu,  B. Alam,  B. Albrecht,  
 A. Aldossary,  E. Alguire,  J. H. Andersen,  D. Barton,  K. Begam,  A. Behn,  
 Y. A. Bernard,  E. J. Berquist,  H. Burton,  A. Carreras,  K. Carter-Fenk,  
 R. Chakraborty,  A. D. Chien,  K. D. Closser,  V. Cofer-Shabica,  
 S. Dasgupta,  Jia Deng,  M. de Wergifosse,  M. Diedenhofen,  Hainam Do,  
 S. Ehlert,  Po-Tung Fang,  S. Fatehi,  Qingguo Feng,  J. Gayvert,  
 Qinghui Ge,  G. Gidofalvi,  M. Goldey,  J. Gomes,  C. Gonzalez-Espinoza,  
 S. Gulania,  A. Gunina,  M. W. D. Hanson-Heine,  P. H. P. Harbach,  
 A. W. Hauser,  M. F. Herbst,  M. Hernandez Vera,  M. Hodecker,  
 Z. C. Holden,  S. Houck,  Xunkun Huang,  Kerwin Hui,  B. C. Huynh,  
 M. Ivanov,  Hyunjun Ji,  Hanjie Jiang,  B. Kaduk,  S. Kaehler,  
 K. Khistyaev,  Jaehoon Kim,  P. Klunzinger,  Z. Koczor-Benda,  
 Joong Hoon Koh,  D. Kosenkov,  L. Koulias,  T. Kowalczyk,  C. M. Krauter,  
 K. Kue,  A. Kunitsa,  T. Kus,  A. Landau,  K. V. Lawler,  D. Lefrancois,  
 S. Lehtola,  Rain Li,  Yi-Pei Li,  Jiashu Liang,  M. Liebenthal,  
 Hung-Hsuan Lin,  You-Sheng Lin,  Fenglai Liu,  Kuan-Yu Liu,  
 M. Loipersberger,  A. Luenser,  A. Manjanath,  P. Manohar,  E. Mansoor,  
 S. F. Manzer,  Shan-Ping Mao,  A. V. Marenich,  T. Markovich,  S. Mason,  
 S. A. Maurer,  P. F. McLaughlin,  M. F. S. J. Menger,  J.-M. Mewes,  
 S. A. Mewes,  P. Morgante,  J. W. Mullinax,  T. S. Nguyen-Beck,  
 K. J. Oosterbaan,  G. Paran,  Alexander C. Paul,  Suranjan K. Paul,  
 F. Pavosevic,  Zheng Pei,  S. Prager,  E. I. Proynov,  E. Ramos,  B. Rana,  
 A. E. Rask,  A. Rettig,  R. M. Richard,  F. Rob,  E. Rossomme,  T. Scheele,  
 M. Scheurer,  M. Schneider,  N. Sergueev,  S. M. Sharada,  W. Skomorowski,  
 D. W. Small,  C. J. Stein,  Yu-Chuan Su,  E. J. Sundstrom,  Zhen Tao,  
 J. Thirman,  T. Tsuchimochi,  N. M. Tubman,  S. P. Veccham,  O. Vydrov,  
 J. Wenzel,  J. Witte,  A. Yamada,  Kun Yao,  S. Yeganeh,  S. R. Yost,  
 A. Zech,  Igor Ying Zhang,  Xing Zhang,  Yu Zhang,  D. Zuev,  
 A. Aspuru-Guzik,  A. T. Bell,  N. A. Besley,  K. B. Bravaya,  B. R. Brooks,  
 D. Casanova,  Jeng-Da Chai,  S. Coriani,  C. J. Cramer,  
 A. E. DePrince, III,  R. A. DiStasio Jr.,  A. Dreuw,  B. D. Dunietz,  
 T. R. Furlani,  W. A. Goddard III,  S. Grimme,  S. Hammes-Schiffer,  
 T. Head-Gordon,  W. J. Hehre,  Chao-Ping Hsu,  T.-C. Jagau,  Yousung Jung,  
 A. Klamt,  Jing Kong,  D. S. Lambrecht,  WanZhen Liang,  N. J. Mayhall,  
 C. W. McCurdy,  J. B. Neaton,  C. Ochsenfeld,  J. A. Parkhill,  R. Peverati,  
 V. A. Rassolov,  Yihan Shao,  L. V. Slipchenko,  T. Stauch,  R. P. Steele,  
 J. E. Subotnik,  A. J. W. Thom,  A. Tkatchenko,  D. G. Truhlar,  
 T. Van Voorhis,  T. A. Wesolowski,  K. B. Whaley,  H. L. Woodcock III,  
 P. M. Zimmerman,  S. Faraji,  P. M. W. Gill,  M. Head-Gordon,  
 J. M. Herbert,  A. I. Krylov

 Contributors to earlier versions of Q-Chem not listed above: 
 R. D. Adamson,  B. Austin,  R. Baer,  J. Baker,  G. J. O. Beran,  
 K. Brandhorst,  S. T. Brown,  E. F. C. Byrd,  A. K. Chakraborty,  
 G. K. L. Chan,  Chun-Min Chang,  Yunqing Chen,  C.-L. Cheng,  
 Siu Hung Chien,  D. M. Chipman,  D. L. Crittenden,  H. Dachsel,  
 R. J. Doerksen,  A. D. Dutoi,  R. G. Edgar,  J. Fosso-Tande,  
 L. Fusti-Molnar,  D. Ghosh,  A. Ghysels,  A. Golubeva-Zadorozhnaya,  
 J. Gonthier,  M. S. Gordon,  S. R. Gwaltney,  G. Hawkins,  J. E. Herr,  
 A. Heyden,  S. Hirata,  E. G. Hohenstein,  G. Kedziora,  F. J. Keil,  
 C. Kelley,  Jihan Kim,  R. A. King,  R. Z. Khaliullin,  P. P. Korambath,  
 W. Kurlancheek,  A. Laurent,  A. M. Lee,  M. S. Lee,  S. V. Levchenko,  
 Ching Yeh Lin,  D. Liotard,  E. Livshits,  R. C. Lochan,  I. Lotan,  
 L. A. Martinez-Martinez,  P. E. Maslen,  N. Nair,  D. P. O'Neill,  
 D. Neuhauser,  E. Neuscamman,  C. M. Oana,  R. Olivares-Amaya,  R. Olson,  
 T. M. Perrine,  B. Peters,  P. A. Pieniazek,  A. Prociuk,  Y. M. Rhee,  
 J. Ritchie,  M. A. Rohrdanz,  E. Rosta,  N. J. Russ,  H. F. Schaefer III,  
 M. W. Schmidt,  N. E. Schultz,  S. Sharma,  N. Shenvi,  C. D. Sherrill,  
 A. C. Simmonett,  A. Sodt,  T. Stein,  D. Stuck,  K. S. Thanthiriwatte,  
 V. Vanovschi,  L. Vogt,  Tao Wang,  A. Warshel,  M. A. Watson,  
 C. F. Williams,  Q. Wu,  X. Xu,  Jun Yang,  W. Zhang,  Yan Zhao

 Please cite Q-Chem as follows:
 Y. Shao et al., Mol. Phys. 113, 184-215 (2015)
 DOI: 10.1080/00268976.2014.952696

 Q-Chem 5.4.0 for Intel X86 EM64T Linux

 Parts of Q-Chem use Armadillo 9.800.1 (Horizon Scraper).
 http://arma.sourceforge.net/

Compilation information
-----------------------

 SVN revision             | 37201
 SVN branch               | trunk
 Last SVN revision        | 37201
 Last SVN author          | xfeng
 Hostname                 | cheetah
 User                     | qcdevops
 System                   | Linux-4.4.104-18.44-default
 Processor                | x86_64
 Compiler                 | Intel
 C compiler version       | 17.0.5.20170817
 CXX compiler version     | 17.0.5.20170817
 Fortran compiler version | 17.0.5.20170817
 Configuration time       | 2021-07-21 08:51:16


 Q-Chem begins on Thu Jul 22 19:46:43 2021  

 Host: 
0

     Scratch files written to /scratch/ericb/ticket_hf_fsm//
 Processing $rem in /sw/qchem/archive/r37201/config/preferences:
 Processing $rem in /dftman/home/ericb/.qchemrc:
 Now reading second FSM geometry

 Checking the input file for inconsistencies... 	...done.

--------------------------------------------------------------
User input:
--------------------------------------------------------------
$molecule
0 1
N       0.2218708968     0.0191523619     0.3387588730
H       1.0835418354    -0.4572129791     0.0837729731
H      -0.5319550055    -0.4931545814    -0.1125571145
H       0.2561422733     0.9312151986    -0.1099747317
****
N       0.2218708968     0.0191523619    -0.3387588730
H       1.0835418354    -0.4572129791    -0.0837729731
H      -0.5319550055    -0.4931545814     0.1125571145
H       0.2561422733     0.9312151986     0.1099747317
$end

$rem
 JOBTYPE         fsm
 MEM_TOTAL       1000
 MEM_STATIC      200
 FSM_NGRAD       2
 FSM_NNODE       5
 FSM_MODE        2
 FSM_OPT_MODE    2
 METHOD          HF
 BASIS           6-31G*
$end
--------------------------------------------------------------
 ----------------------------------------------------------------
             Standard Nuclear Orientation (Angstroms)
    I     Atom           X                Y                Z
 ----------------------------------------------------------------
    1      N       0.2218708968     0.0191523619     0.3387588730
    2      H       1.0835418354    -0.4572129791     0.0837729731
    3      H      -0.5319550055    -0.4931545814    -0.1125571145
    4      H       0.2561422733     0.9312151986    -0.1099747317
 ----------------------------------------------------------------
 Nuclear Repulsion Energy =          11.90160236 hartrees
 There are        5 alpha and        5 beta electrons
 Requested basis set is 6-31G(d)
 There are 10 shells and 21 basis functions

 Total QAlloc Memory Limit   1000 MB
 Mega-Array Size       196 MB
 MEM_STATIC part       200 MB
 beginning FSman 

*******************************************
*******************************************
******** Starting FSM Calculation *********
*******************************************
*******************************************
-FSM parameters:
 Maximum displacement of each coordinate during optimization (Angstrom)      0.05
 Maximum optimization steps for each new node                                2
 The scaling factor for optimization (hartrees/Angstrom^2)                   1.75
 The number of LST interpolations used for reparameterization                100
-Aligning product structure to maximum coincidence with the reactant structure
 Total R --> P Distance 0.673343
 New node interpolation distace (Angstroms): 0.13
-Performing force calculation on reactant structure in state:0
 ----------------------------------------------------------------
             Standard Nuclear Orientation (Angstroms)
    I     Atom           X                Y                Z
 ----------------------------------------------------------------
    1      N       0.2218708968     0.0191523619     0.3387588730
    2      H       1.0835418354    -0.4572129791     0.0837729731
    3      H      -0.5319550055    -0.4931545814    -0.1125571145
    4      H       0.2561422733     0.9312151986    -0.1099747317
 ----------------------------------------------------------------
 Nuclear Repulsion Energy =          11.90160236 hartrees
 There are        5 alpha and        5 beta electrons

                       Distance Matrix (Angstroms)
             N (  1)   H (  2)   H (  3)
   H (  2)  1.017064
   H (  3)  1.017054  1.627780
   H (  4)  1.017052  1.627839  1.627862
 
 Requested basis set is 6-31G(d)
 There are 10 shells and 21 basis functions
 A cutoff of  1.0D-11 yielded     55 shell pairs
 There are       258 function pairs
 Smallest overlap matrix eigenvalue = 2.24E-02

 Scale SEOQF with 1.000000e+00/1.000000e+00/1.000000e+00

 Standard Electronic Orientation quadrupole field applied
 Nucleus-field energy     =     0.0000000007 hartrees
 Guess from superposition of atomic densities
 Warning:  Energy on first SCF cycle will be non-variational
 SAD guess density has 10.000000 electrons

 -----------------------------------------------------------------------
  General SCF calculation program by
  Eric Jon Sundstrom, Paul Horn, Yuezhi Mao, Dmitri Zuev, Alec White,
  David Stuck, Shaama M.S., Shane Yost, Joonho Lee, David Small,
  Daniel Levine, Susi Lehtola, Hugh Burton, Evgeny Epifanovsky,
  Bang C. Huynh
 -----------------------------------------------------------------------
 Hartree-Fock
 A restricted SCF calculation will be
 performed using DIIS
 SCF converges when DIIS error is below 1.0e-08
 ---------------------------------------
  Cycle       Energy         DIIS error
 ---------------------------------------
    1     -56.1765967376      1.76e-01  
    2     -56.1610922883      2.04e-02  
    3     -56.1804103018      8.47e-03  
    4     -56.1836427215      1.60e-03  
    5     -56.1838119290      2.77e-04  
    6     -56.1838199277      6.30e-05  
    7     -56.1838206924      1.51e-05  
    8     -56.1838207405      1.94e-06  
    9     -56.1838207412      3.15e-07  
   10     -56.1838207412      2.71e-08  
   11     -56.1838207413      2.65e-09  Convergence criterion met
 ---------------------------------------
 SCF time:   CPU 0.23s  wall 0.00s 
 SCF   energy in the final basis set =      -56.1838207413
 Total energy in the final basis set =      -56.1838207413
 
 --------------------------------------------------------------
 
                    Orbital Energies (a.u.)
 --------------------------------------------------------------
 
 Alpha MOs
 -- Occupied --
-15.5404  -1.1346  -0.6206  -0.6206  -0.4222
 -- Virtual --
  0.2194   0.3209   0.3209   0.8970   0.8971   0.9701   1.2051   1.2182
  1.2182   1.3729   1.9661   1.9662   2.2590   2.7502   2.7502   4.0846
 --------------------------------------------------------------
 
          Ground-State Mulliken Net Atomic Charges

     Atom                 Charge (a.u.)
  ----------------------------------------
      1 N                    -0.988601
      2 H                     0.329528
      3 H                     0.329533
      4 H                     0.329540
  ----------------------------------------
  Sum of atomic charges =     0.000000

 -----------------------------------------------------------------
                    Cartesian Multipole Moments
 -----------------------------------------------------------------
    Charge (ESU x 10^10)
                -0.0000
    Dipole Moment (Debye)
         X       0.2402      Y      -0.1294      Z      -1.9524
       Tot       1.9713
    Quadrupole Moments (Debye-Ang)
        XX      -6.0386     XY      -0.0056     YY      -6.1253
        XZ      -0.0728     YZ      -0.2315     ZZ      -9.7021
    Octopole Moments (Debye-Ang^2)
       XXX      -3.9227    XXY      -0.9938    XYY      -1.3768
       YYY       0.4678    XXZ      -2.1966    XYZ      -0.1569
       YYZ      -2.4068    XZZ      -2.1268    YZZ      -0.2003
       ZZZ      -8.0568
    Hexadecapole Moments (Debye-Ang^3)
      XXXX     -11.0023   XXXY      -0.8172   XXYY      -3.4033
      XYYY       0.1601   YYYY      -9.3882   XXXZ      -1.4380
      XXYZ       0.0096   XYYZ      -0.5180   YYYZ      -0.2794
      XXZZ      -4.4539   XYZZ      -0.0190   YYZZ      -3.9619
      XZZZ      -1.8487   YZZZ      -0.1211   ZZZZ     -14.2276
 -----------------------------------------------------------------
 Calculating analytic gradient of the SCF energy
 Gradient of SCF Energy
            1           2           3           4
    1  -0.0018838   0.0104216  -0.0090076   0.0004698
    2   0.0010263  -0.0057698  -0.0062019   0.0109454
    3   0.0152174  -0.0035133  -0.0058692  -0.0058349
 Max gradient component =       1.522E-02
 RMS gradient           =       7.630E-03
 Gradient time:  CPU 0.09 s  wall 0.10 s
-Performing force calculation on product structure in state0
 ----------------------------------------------------------------
             Standard Nuclear Orientation (Angstroms)
    I     Atom           X                Y                Z
 ----------------------------------------------------------------
    1      N       0.2929359908    -0.0191261505    -0.2387597628
    2      H       1.0598477983    -0.4444314862     0.2763908993
    3      H      -0.5556296802    -0.4804121047     0.0799086951
    4      H       0.2324458912     0.9439697414     0.0824601684
 ----------------------------------------------------------------
 Nuclear Repulsion Energy =          11.90160236 hartrees
 There are        5 alpha and        5 beta electrons

                       Distance Matrix (Angstroms)
             N (  1)   H (  2)   H (  3)
   H (  2)  1.017064
   H (  3)  1.017054  1.627780
   H (  4)  1.017052  1.627839  1.627862
 
 Applying Cartesian multipole field
    Component          Value
    ---------          -----
     (2,0,0)        1.00000E-10
     (0,2,0)        2.00000E-10
     (0,0,2)       -3.00000E-10
 Nucleus-field energy     =     0.0000000012 hartrees
 Requested basis set is 6-31G(d)
 There are 10 shells and 21 basis functions
 A cutoff of  1.0D-11 yielded     55 shell pairs
 There are       258 function pairs
 Smallest overlap matrix eigenvalue = 2.24E-02
 Guess from superposition of atomic densities
 Warning:  Energy on first SCF cycle will be non-variational
 SAD guess density has 10.000000 electrons

 -----------------------------------------------------------------------
  General SCF calculation program by
  Eric Jon Sundstrom, Paul Horn, Yuezhi Mao, Dmitri Zuev, Alec White,
  David Stuck, Shaama M.S., Shane Yost, Joonho Lee, David Small,
  Daniel Levine, Susi Lehtola, Hugh Burton, Evgeny Epifanovsky,
  Bang C. Huynh
 -----------------------------------------------------------------------
 Hartree-Fock
 A restricted SCF calculation will be
 performed using DIIS
 SCF converges when DIIS error is below 1.0e-08
 ---------------------------------------
  Cycle       Energy         DIIS error
 ---------------------------------------
    1     -56.1765967376      1.76e-01  
    2     -56.1610922884      2.04e-02  
    3     -56.1804103019      8.47e-03  
    4     -56.1836427216      1.60e-03  
    5     -56.1838119291      2.77e-04  
    6     -56.1838199278      6.30e-05  
    7     -56.1838206925      1.51e-05  
    8     -56.1838207406      1.94e-06  
    9     -56.1838207413      3.15e-07  
   10     -56.1838207413      2.71e-08  
   11     -56.1838207414      2.65e-09  Convergence criterion met
 ---------------------------------------
 SCF time:   CPU 0.24s  wall 0.00s 
 SCF   energy in the final basis set =      -56.1838207414
 Total energy in the final basis set =      -56.1838207414
 
 --------------------------------------------------------------
 
                    Orbital Energies (a.u.)
 --------------------------------------------------------------
 
 Alpha MOs
 -- Occupied --
-15.5404  -1.1346  -0.6206  -0.6206  -0.4222
 -- Virtual --
  0.2194   0.3209   0.3209   0.8970   0.8971   0.9701   1.2051   1.2182
  1.2182   1.3729   1.9661   1.9662   2.2590   2.7502   2.7502   4.0846
 --------------------------------------------------------------
 
          Ground-State Mulliken Net Atomic Charges

     Atom                 Charge (a.u.)
  ----------------------------------------
      1 N                    -0.988601
      2 H                     0.329528
      3 H                     0.329533
      4 H                     0.329540
  ----------------------------------------
  Sum of atomic charges =     0.000000

 -----------------------------------------------------------------
                    Cartesian Multipole Moments
 -----------------------------------------------------------------
    Charge (ESU x 10^10)
                -0.0000
    Dipole Moment (Debye)
         X      -0.2403      Y       0.1294      Z       1.9524
       Tot       1.9713
    Quadrupole Moments (Debye-Ang)
        XX      -6.2860     XY       0.0611     YY      -6.1254
        XZ       0.9086     YZ      -0.2187     ZZ      -9.3115
    Octopole Moments (Debye-Ang^2)
       XXX      -5.5221    XXY      -0.7059    XYY      -1.8780
       YYY       1.2771    XXZ       2.1341    XYZ      -0.1621
       YYZ       1.6661    XZZ      -2.6550    YZZ       0.1383
       ZZZ       5.2094
    Hexadecapole Moments (Debye-Ang^3)
      XXXX     -12.5906   XXXY      -0.4744   XXYY      -3.7024
      XYYY       0.3211   YYYY      -9.2951   XXXZ       1.7079
      XXYZ      -0.3161   XYYZ       0.4826   YYYZ       0.1070
      XXZZ      -4.2950   XYZZ      -0.0147   YYZZ      -3.6066
      XZZZ       1.4891   YZZZ      -0.0802   ZZZZ     -11.5746
 -----------------------------------------------------------------
 Calculating analytic gradient of the SCF energy
 Gradient of SCF Energy
            1           2           3           4
    1   0.0018619   0.0091718  -0.0102560  -0.0007778
    2  -0.0009913  -0.0050963  -0.0055296   0.0116172
    3  -0.0152224   0.0066445   0.0042764   0.0043015
 Max gradient component =       1.522E-02
 RMS gradient           =       7.630E-03
 Gradient time:  CPU 0.05 s  wall 0.07 s

STARTING FREEZING STRING ITERATION # 1
 The distance between the innermost nodes (Angstroms): 0.673
-Adding two new nodes
 The distance between the previous and current R_nodes (Angstroms): 0.0728
 The distance between the previous and current P_nodes (Angstroms): 0.0498
-Optimizing new reactant side node
 Using BFGS, step: 2 E_tol 0.0000
 max_steps 2, node_spacing 0.1347, sigma 0.7000
 ----------------------------------------------------------------
             Standard Nuclear Orientation (Angstroms)
    I     Atom           X                Y                Z
 ----------------------------------------------------------------
    1      N       0.2273225896     0.0182659289     0.2880369847
    2      H       1.0926332992    -0.4600255530     0.0619898498
    3      H      -0.5315236522    -0.4980363150    -0.1434813063
    4      H       0.2603747124     0.9354858705    -0.1434525787
 ----------------------------------------------------------------
 Nuclear Repulsion Energy =          11.92649388 hartrees
 There are        5 alpha and        5 beta electrons

                       Distance Matrix (Angstroms)
             N (  1)   H (  2)   H (  3)
   H (  2)  1.014210
   H (  3)  1.014211  1.637544
   H (  4)  1.014183  1.637777  1.637708
 
 Applying Cartesian multipole field
    Component          Value
    ---------          -----
     (2,0,0)        1.00000E-10
     (0,2,0)        2.00000E-10
     (0,0,2)       -3.00000E-10
 Nucleus-field energy     =     0.0000000010 hartrees
 Requested basis set is 6-31G(d)
 There are 10 shells and 21 basis functions
 A cutoff of  1.0D-11 yielded     55 shell pairs
 There are       258 function pairs
 Smallest overlap matrix eigenvalue = 2.25E-02
 Guess from superposition of atomic densities
 Warning:  Energy on first SCF cycle will be non-variational
 SAD guess density has 10.000000 electrons

 -----------------------------------------------------------------------
  General SCF calculation program by
  Eric Jon Sundstrom, Paul Horn, Yuezhi Mao, Dmitri Zuev, Alec White,
  David Stuck, Shaama M.S., Shane Yost, Joonho Lee, David Small,
  Daniel Levine, Susi Lehtola, Hugh Burton, Evgeny Epifanovsky,
  Bang C. Huynh
 -----------------------------------------------------------------------
 Hartree-Fock
 A restricted SCF calculation will be
 performed using DIIS
 SCF converges when DIIS error is below 1.0e-08
 ---------------------------------------
  Cycle       Energy         DIIS error
 ---------------------------------------
    1     -56.1806792694      1.76e-01  
    2     -56.1613718839      2.05e-02  
    3     -56.1805329712      8.47e-03  
    4     -56.1837712769      1.58e-03  
    5     -56.1839362658      2.64e-04  
    6     -56.1839432598      5.91e-05  
    7     -56.1839439117      1.44e-05  
    8     -56.1839439554      1.92e-06  
    9     -56.1839439561      3.22e-07  
   10     -56.1839439561      2.85e-08  
   11     -56.1839439561      2.70e-09  Convergence criterion met
 ---------------------------------------
 SCF time:   CPU 0.22s  wall 1.00s 
 SCF   energy in the final basis set =      -56.1839439561
 Total energy in the final basis set =      -56.1839439561
 
 --------------------------------------------------------------
 
                    Orbital Energies (a.u.)
 --------------------------------------------------------------
 
 Alpha MOs
 -- Occupied --
-15.5379  -1.1331  -0.6233  -0.6233  -0.4178
 -- Virtual --
  0.2208   0.3221   0.3221   0.9006   0.9007   0.9703   1.1969   1.2226
  1.2227   1.3570   1.9672   1.9672   2.2833   2.7516   2.7516   4.0894
 --------------------------------------------------------------
 
          Ground-State Mulliken Net Atomic Charges

     Atom                 Charge (a.u.)
  ----------------------------------------
      1 N                    -0.996583
      2 H                     0.332188
      3 H                     0.332181
      4 H                     0.332214
  ----------------------------------------
  Sum of atomic charges =     0.000000

 -----------------------------------------------------------------
                    Cartesian Multipole Moments
 -----------------------------------------------------------------
    Charge (ESU x 10^10)
                -0.0000
    Dipole Moment (Debye)
         X       0.2399      Y      -0.1327      Z      -1.8720
       Tot       1.8920
    Quadrupole Moments (Debye-Ang)
        XX      -5.9727     XY      -0.0040     YY      -6.0578
        XZ      -0.0459     YZ      -0.2438     ZZ      -9.5427
    Octopole Moments (Debye-Ang^2)
       XXX      -3.9674    XXY      -1.0206    XYY      -1.3962
       YYY       0.5153    XXZ      -1.8584    XYZ      -0.1705
       YYZ      -2.0959    XZZ      -2.1615    YZZ      -0.1784
       ZZZ      -6.7216
    Hexadecapole Moments (Debye-Ang^3)
      XXXX     -10.9598   XXXY      -0.8528   XXYY      -3.3795
      XYYY       0.1753   YYYY      -9.2897   XXXZ      -1.2355
      XXYZ       0.0297   XYYZ      -0.4546   YYYZ      -0.2849
      XXZZ      -4.2654   XYZZ      -0.0098   YYZZ      -3.7407
      XZZZ      -1.5965   YZZZ      -0.0849   ZZZZ     -12.7652
 -----------------------------------------------------------------
 Calculating analytic gradient of the SCF energy
 Gradient of SCF Energy
            1           2           3           4
    1  -0.0010289   0.0099060  -0.0090550   0.0001780
    2   0.0006347  -0.0055132  -0.0059475   0.0108260
    3   0.0081023  -0.0011052  -0.0035093  -0.0034878
 Max gradient component =       1.083E-02
 RMS gradient           =       6.164E-03
 Gradient time:  CPU 0.05 s  wall 0.07 s
 ----------------------------------------------------------------
             Standard Nuclear Orientation (Angstroms)
    I     Atom           X                Y                Z
 ----------------------------------------------------------------
    1      N       0.2273225902     0.0182659286     0.2880369807
    2      H       1.0926332944    -0.4600255503     0.0619898501
    3      H      -0.5315236478    -0.4980363121    -0.1434813045
    4      H       0.2603747123     0.9354858652    -0.1434525770
 ----------------------------------------------------------------
 Nuclear Repulsion Energy =          11.92649396 hartrees
 There are        5 alpha and        5 beta electrons

                       Distance Matrix (Angstroms)
             N (  1)   H (  2)   H (  3)
   H (  2)  1.014210
   H (  3)  1.014211  1.637544
   H (  4)  1.014183  1.637777  1.637708
 
 Applying Cartesian multipole field
    Component          Value
    ---------          -----
     (2,0,0)        1.00000E-10
     (0,2,0)        2.00000E-10
     (0,0,2)       -3.00000E-10
 Nucleus-field energy     =     0.0000000010 hartrees
 Requested basis set is 6-31G(d)
 There are 10 shells and 21 basis functions
 A cutoff of  1.0D-11 yielded     55 shell pairs
 There are       258 function pairs
 Smallest overlap matrix eigenvalue = 2.25E-02
 Guess from superposition of atomic densities
 Warning:  Energy on first SCF cycle will be non-variational
 SAD guess density has 10.000000 electrons

 -----------------------------------------------------------------------
  General SCF calculation program by
  Eric Jon Sundstrom, Paul Horn, Yuezhi Mao, Dmitri Zuev, Alec White,
  David Stuck, Shaama M.S., Shane Yost, Joonho Lee, David Small,
  Daniel Levine, Susi Lehtola, Hugh Burton, Evgeny Epifanovsky,
  Bang C. Huynh
 -----------------------------------------------------------------------
 Hartree-Fock
 A restricted SCF calculation will be
 performed using DIIS
 SCF converges when DIIS error is below 1.0e-08
 ---------------------------------------
  Cycle       Energy         DIIS error
 ---------------------------------------
    1     -56.1806792875      1.76e-01  
    2     -56.1613718840      2.05e-02  
    3     -56.1805329716      8.47e-03  
    4     -56.1837712773      1.58e-03  
    5     -56.1839362662      2.64e-04  
    6     -56.1839432602      5.91e-05  
    7     -56.1839439121      1.44e-05  
    8     -56.1839439558      1.92e-06  
    9     -56.1839439565      3.22e-07  
   10     -56.1839439565      2.85e-08  
   11     -56.1839439566      2.70e-09  Convergence criterion met
 ---------------------------------------
 SCF time:   CPU 0.22s  wall 0.00s 
 SCF   energy in the final basis set =      -56.1839439566
 Total energy in the final basis set =      -56.1839439566
 
 --------------------------------------------------------------
 
                    Orbital Energies (a.u.)
 --------------------------------------------------------------
 
 Alpha MOs
 -- Occupied --
-15.5379  -1.1331  -0.6233  -0.6233  -0.4178
 -- Virtual --
  0.2208   0.3221   0.3221   0.9006   0.9007   0.9703   1.1969   1.2226
  1.2227   1.3570   1.9672   1.9672   2.2833   2.7516   2.7516   4.0894
 --------------------------------------------------------------
 
          Ground-State Mulliken Net Atomic Charges

     Atom                 Charge (a.u.)
  ----------------------------------------
      1 N                    -0.996583
      2 H                     0.332188
      3 H                     0.332181
      4 H                     0.332214
  ----------------------------------------
  Sum of atomic charges =     0.000000

 -----------------------------------------------------------------
                    Cartesian Multipole Moments
 -----------------------------------------------------------------
    Charge (ESU x 10^10)
                -0.0000
    Dipole Moment (Debye)
         X       0.2399      Y      -0.1327      Z      -1.8720
       Tot       1.8920
    Quadrupole Moments (Debye-Ang)
        XX      -5.9727     XY      -0.0040     YY      -6.0578
        XZ      -0.0459     YZ      -0.2438     ZZ      -9.5427
    Octopole Moments (Debye-Ang^2)
       XXX      -3.9674    XXY      -1.0206    XYY      -1.3962
       YYY       0.5153    XXZ      -1.8584    XYZ      -0.1705
       YYZ      -2.0959    XZZ      -2.1615    YZZ      -0.1784
       ZZZ      -6.7216
    Hexadecapole Moments (Debye-Ang^3)
      XXXX     -10.9598   XXXY      -0.8528   XXYY      -3.3795
      XYYY       0.1753   YYYY      -9.2897   XXXZ      -1.2355
      XXYZ       0.0297   XYYZ      -0.4546   YYYZ      -0.2849
      XXZZ      -4.2654   XYZZ      -0.0098   YYZZ      -3.7407
      XZZZ      -1.5965   YZZZ      -0.0849   ZZZZ     -12.7652
 -----------------------------------------------------------------
 Calculating analytic gradient of the SCF energy
 Gradient of SCF Energy
            1           2           3           4
    1  -0.0010289   0.0099060  -0.0090550   0.0001780
    2   0.0006347  -0.0055132  -0.0059475   0.0108260
    3   0.0081023  -0.0011052  -0.0035093  -0.0034878
 Max gradient component =       1.083E-02
 RMS gradient           =       6.164E-03
 Gradient time:  CPU 0.05 s  wall 0.06 s
 converged (energy) along this node, energy -56.1839440
done with opt_step_by_gradient, Reactant, iter1
-Optimizing new product side node
 Using BFGS, step: 2 E_tol 0.0000000
 max_steps 2, node_spacing 0.1346686, sigma 0.7000000
 ----------------------------------------------------------------
             Standard Nuclear Orientation (Angstroms)
    I     Atom           X                Y                Z
 ----------------------------------------------------------------
    1      N       0.2873128607    -0.0143977781    -0.2002926991
    2      H       1.0620779843    -0.4455094306     0.2920131340
    3      H      -0.5636479980    -0.4800619023     0.0954944930
    4      H       0.2304970329     0.9525322281     0.1001205600
 ----------------------------------------------------------------
 Nuclear Repulsion Energy =          11.92709969 hartrees
 There are        5 alpha and        5 beta electrons

                       Distance Matrix (Angstroms)
             N (  1)   H (  2)   H (  3)
   H (  2)  1.014142
   H (  3)  1.014134  1.637925
   H (  4)  1.014115  1.637947  1.637991
 
 Applying Cartesian multipole field
    Component          Value
    ---------          -----
     (2,0,0)        1.00000E-10
     (0,2,0)        2.00000E-10
     (0,0,2)       -3.00000E-10
 Nucleus-field energy     =     0.0000000013 hartrees
 Requested basis set is 6-31G(d)
 There are 10 shells and 21 basis functions
 A cutoff of  1.0D-11 yielded     55 shell pairs
 There are       258 function pairs
 Smallest overlap matrix eigenvalue = 2.25E-02
 Guess from superposition of atomic densities
 Warning:  Energy on first SCF cycle will be non-variational
 SAD guess density has 10.000000 electrons

 -----------------------------------------------------------------------
  General SCF calculation program by
  Eric Jon Sundstrom, Paul Horn, Yuezhi Mao, Dmitri Zuev, Alec White,
  David Stuck, Shaama M.S., Shane Yost, Joonho Lee, David Small,
  Daniel Levine, Susi Lehtola, Hugh Burton, Evgeny Epifanovsky,
  Bang C. Huynh
 -----------------------------------------------------------------------
 Hartree-Fock
 A restricted SCF calculation will be
 performed using DIIS
 SCF converges when DIIS error is below 1.0e-08
 ---------------------------------------
  Cycle       Energy         DIIS error
 ---------------------------------------
    1     -56.1807741883      1.76e-01  
    2     -56.1613757366      2.05e-02  
    3     -56.1805322250      8.47e-03  
    4     -56.1837707293      1.58e-03  
    5     -56.1839356039      2.63e-04  
    6     -56.1839425718      5.90e-05  
    7     -56.1839432208      1.43e-05  
    8     -56.1839432643      1.91e-06  
    9     -56.1839432650      3.22e-07  
   10     -56.1839432650      2.85e-08  
   11     -56.1839432651      2.70e-09  Convergence criterion met
 ---------------------------------------
 SCF time:   CPU 0.24s  wall 0.00s 
 SCF   energy in the final basis set =      -56.1839432651
 Total energy in the final basis set =      -56.1839432651
 
 --------------------------------------------------------------
 
                    Orbital Energies (a.u.)
 --------------------------------------------------------------
 
 Alpha MOs
 -- Occupied --
-15.5379  -1.1330  -0.6234  -0.6234  -0.4177
 -- Virtual --
  0.2208   0.3222   0.3222   0.9008   0.9008   0.9703   1.1966   1.2228
  1.2228   1.3566   1.9672   1.9672   2.2840   2.7516   2.7516   4.0895
 --------------------------------------------------------------
 
          Ground-State Mulliken Net Atomic Charges

     Atom                 Charge (a.u.)
  ----------------------------------------
      1 N                    -0.996805
      2 H                     0.332261
      3 H                     0.332268
      4 H                     0.332276
  ----------------------------------------
  Sum of atomic charges =     0.000000

 -----------------------------------------------------------------
                    Cartesian Multipole Moments
 -----------------------------------------------------------------
    Charge (ESU x 10^10)
                -0.0000
    Dipole Moment (Debye)
         X      -0.2288      Y       0.1207      Z       1.8719
       Tot       1.8897
    Quadrupole Moments (Debye-Ang)
        XX      -6.2075     XY       0.0573     YY      -6.0530
        XZ       0.8811     YZ      -0.2082     ZZ      -9.2222
    Octopole Moments (Debye-Ang^2)
       XXX      -5.3584    XXY      -0.7728    XYY      -1.8236
       YYY       1.2243    XXZ       1.8856    XYZ      -0.1603
       YYZ       1.4275    XZZ      -2.5648    YZZ       0.0868
       ZZZ       4.2591
    Hexadecapole Moments (Debye-Ang^3)
      XXXX     -12.3345   XXXY      -0.5237   XXYY      -3.6449
      XYYY       0.3009   YYYY      -9.1746   XXXZ       1.4813
      XXYZ      -0.3202   XYYZ       0.4077   YYYZ       0.1501
      XXZZ      -4.1329   XYZZ      -0.0338   YYZZ      -3.4902
      XZZZ       1.1873   YZZZ      -0.0430   ZZZZ     -10.8343
 -----------------------------------------------------------------
 Calculating analytic gradient of the SCF energy
 Gradient of SCF Energy
            1           2           3           4
    1   0.0009562   0.0092496  -0.0097444  -0.0004614
    2  -0.0004831  -0.0051464  -0.0055544   0.0111839
    3  -0.0079347   0.0041638   0.0018623   0.0019086
 Max gradient component =       1.118E-02
 RMS gradient           =       6.135E-03
 Gradient time:  CPU 0.08 s  wall 0.09 s
 ----------------------------------------------------------------
             Standard Nuclear Orientation (Angstroms)
    I     Atom           X                Y                Z
 ----------------------------------------------------------------
    1      N       0.2873128603    -0.0143977778    -0.2002926952
    2      H       1.0620779797    -0.4455094281     0.2920131320
    3      H      -0.5636479932    -0.4800618995     0.0954944920
    4      H       0.2304970331     0.9525322226     0.1001205590
 ----------------------------------------------------------------
 Nuclear Repulsion Energy =          11.92709977 hartrees
 There are        5 alpha and        5 beta electrons

                       Distance Matrix (Angstroms)
             N (  1)   H (  2)   H (  3)
   H (  2)  1.014142
   H (  3)  1.014134  1.637925
   H (  4)  1.014115  1.637947  1.637991
 
 Applying Cartesian multipole field
    Component          Value
    ---------          -----
     (2,0,0)        1.00000E-10
     (0,2,0)        2.00000E-10
     (0,0,2)       -3.00000E-10
 Nucleus-field energy     =     0.0000000013 hartrees
 Requested basis set is 6-31G(d)
 There are 10 shells and 21 basis functions
 A cutoff of  1.0D-11 yielded     55 shell pairs
 There are       258 function pairs
 Smallest overlap matrix eigenvalue = 2.25E-02
 Guess from superposition of atomic densities
 Warning:  Energy on first SCF cycle will be non-variational
 SAD guess density has 10.000000 electrons

 -----------------------------------------------------------------------
  General SCF calculation program by
  Eric Jon Sundstrom, Paul Horn, Yuezhi Mao, Dmitri Zuev, Alec White,
  David Stuck, Shaama M.S., Shane Yost, Joonho Lee, David Small,
  Daniel Levine, Susi Lehtola, Hugh Burton, Evgeny Epifanovsky,
  Bang C. Huynh
 -----------------------------------------------------------------------
 Hartree-Fock
 A restricted SCF calculation will be
 performed using DIIS
 SCF converges when DIIS error is below 1.0e-08
 ---------------------------------------
  Cycle       Energy         DIIS error
 ---------------------------------------
    1     -56.1807742065      1.76e-01  
    2     -56.1613757368      2.05e-02  
    3     -56.1805322254      8.47e-03  
    4     -56.1837707297      1.58e-03  
    5     -56.1839356044      2.63e-04  
    6     -56.1839425722      5.90e-05  
    7     -56.1839432212      1.43e-05  
    8     -56.1839432648      1.91e-06  
    9     -56.1839432654      3.22e-07  
   10     -56.1839432655      2.85e-08  
   11     -56.1839432655      2.70e-09  Convergence criterion met
 ---------------------------------------
 SCF time:   CPU 0.22s  wall 0.00s 
 SCF   energy in the final basis set =      -56.1839432655
 Total energy in the final basis set =      -56.1839432655
 
 --------------------------------------------------------------
 
                    Orbital Energies (a.u.)
 --------------------------------------------------------------
 
 Alpha MOs
 -- Occupied --
-15.5379  -1.1330  -0.6234  -0.6234  -0.4177
 -- Virtual --
  0.2208   0.3222   0.3222   0.9008   0.9008   0.9703   1.1966   1.2228
  1.2228   1.3566   1.9672   1.9672   2.2840   2.7516   2.7516   4.0895
 --------------------------------------------------------------
 
          Ground-State Mulliken Net Atomic Charges

     Atom                 Charge (a.u.)
  ----------------------------------------
      1 N                    -0.996805
      2 H                     0.332261
      3 H                     0.332268
      4 H                     0.332276
  ----------------------------------------
  Sum of atomic charges =     0.000000

 -----------------------------------------------------------------
                    Cartesian Multipole Moments
 -----------------------------------------------------------------
    Charge (ESU x 10^10)
                -0.0000
    Dipole Moment (Debye)
         X      -0.2288      Y       0.1207      Z       1.8719
       Tot       1.8897
    Quadrupole Moments (Debye-Ang)
        XX      -6.2075     XY       0.0573     YY      -6.0530
        XZ       0.8811     YZ      -0.2082     ZZ      -9.2222
    Octopole Moments (Debye-Ang^2)
       XXX      -5.3584    XXY      -0.7728    XYY      -1.8236
       YYY       1.2243    XXZ       1.8856    XYZ      -0.1603
       YYZ       1.4275    XZZ      -2.5648    YZZ       0.0868
       ZZZ       4.2591
    Hexadecapole Moments (Debye-Ang^3)
      XXXX     -12.3345   XXXY      -0.5237   XXYY      -3.6449
      XYYY       0.3009   YYYY      -9.1746   XXXZ       1.4813
      XXYZ      -0.3202   XYYZ       0.4077   YYYZ       0.1501
      XXZZ      -4.1329   XYZZ      -0.0338   YYZZ      -3.4902
      XZZZ       1.1873   YZZZ      -0.0430   ZZZZ     -10.8343
 -----------------------------------------------------------------
 Calculating analytic gradient of the SCF energy
 Gradient of SCF Energy
            1           2           3           4
    1   0.0009562   0.0092496  -0.0097444  -0.0004614
    2  -0.0004831  -0.0051464  -0.0055544   0.0111839
    3  -0.0079347   0.0041638   0.0018623   0.0019086
 Max gradient component =       1.118E-02
 RMS gradient           =       6.135E-03
 Gradient time:  CPU 0.07 s  wall 0.08 s
 converged (energy) along this node, energy -56.1839433
 After opt distance between the previous and current R_nodes (Angstroms): 0.0728
 After opt distance between the previous and current P_nodes (Angstroms): 0.0498
-Printing perpgrad.txt, Vfile.txt, and stringfile.txt

STARTING FREEZING STRING ITERATION # 2
 The distance between the innermost nodes (Angstroms): 0.645
-Adding two new nodes
 The distance between the previous and current R_nodes (Angstroms): 0.0277
 The distance between the previous and current P_nodes (Angstroms): 0.0256
-Optimizing new reactant side node
 Using BFGS, step: 3 E_tol 0.0000
 max_steps 2, node_spacing 0.1347, sigma 0.7000
 ----------------------------------------------------------------
             Standard Nuclear Orientation (Angstroms)
    I     Atom           X                Y                Z
 ----------------------------------------------------------------
    1      N       0.2300172400     0.0185122230     0.2628836554
    2      H       1.0978749852    -0.4613770031     0.0645481164
    3      H      -0.5360324444    -0.4998265037    -0.1461372575
    4      H       0.2609396150     0.9428170789    -0.1462577754
 ----------------------------------------------------------------
 Nuclear Repulsion Energy =          11.95158940 hartrees
 There are        5 alpha and        5 beta electrons

                       Distance Matrix (Angstroms)
             N (  1)   H (  2)   H (  3)
   H (  2)  1.011340
   H (  3)  1.011338  1.647884
   H (  4)  1.011283  1.648230  1.648146
 
 Applying Cartesian multipole field
    Component          Value
    ---------          -----
     (2,0,0)        1.00000E-10
     (0,2,0)        2.00000E-10
     (0,0,2)       -3.00000E-10
 Nucleus-field energy     =     0.0000000011 hartrees
 Requested basis set is 6-31G(d)
 There are 10 shells and 21 basis functions
 A cutoff of  1.0D-11 yielded     55 shell pairs
 There are       258 function pairs
 Smallest overlap matrix eigenvalue = 2.26E-02
 Guess from superposition of atomic densities
 Warning:  Energy on first SCF cycle will be non-variational
 SAD guess density has 10.000000 electrons

 -----------------------------------------------------------------------
  General SCF calculation program by
  Eric Jon Sundstrom, Paul Horn, Yuezhi Mao, Dmitri Zuev, Alec White,
  David Stuck, Shaama M.S., Shane Yost, Joonho Lee, David Small,
  Daniel Levine, Susi Lehtola, Hugh Burton, Evgeny Epifanovsky,
  Bang C. Huynh
 -----------------------------------------------------------------------
 Hartree-Fock
 A restricted SCF calculation will be
 performed using DIIS
 SCF converges when DIIS error is below 1.0e-08
 ---------------------------------------
  Cycle       Energy         DIIS error
 ---------------------------------------
    1     -56.1847418630      1.77e-01  
    2     -56.1613828856      2.05e-02  
    3     -56.1803680960      8.48e-03  
    4     -56.1836174190      1.56e-03  
    5     -56.1837779413      2.49e-04  
    6     -56.1837839505      5.51e-05  
    7     -56.1837844960      1.35e-05  
    8     -56.1837845345      1.88e-06  
    9     -56.1837845352      3.27e-07  
   10     -56.1837845352      3.01e-08  
   11     -56.1837845353      2.77e-09  Convergence criterion met
 ---------------------------------------
 SCF time:   CPU 0.20s  wall 1.00s 
 SCF   energy in the final basis set =      -56.1837845353
 Total energy in the final basis set =      -56.1837845353
 
 --------------------------------------------------------------
 
                    Orbital Energies (a.u.)
 --------------------------------------------------------------
 
 Alpha MOs
 -- Occupied --
-15.5353  -1.1313  -0.6261  -0.6260  -0.4132
 -- Virtual --
  0.2221   0.3234   0.3234   0.9047   0.9048   0.9704   1.1852   1.2273
  1.2274   1.3443   1.9686   1.9687   2.3093   2.7516   2.7517   4.0943
 --------------------------------------------------------------
 
          Ground-State Mulliken Net Atomic Charges

     Atom                 Charge (a.u.)
  ----------------------------------------
      1 N                    -1.005375
      2 H                     0.335113
      3 H                     0.335104
      4 H                     0.335159
  ----------------------------------------
  Sum of atomic charges =     0.000000

 -----------------------------------------------------------------
                    Cartesian Multipole Moments
 -----------------------------------------------------------------
    Charge (ESU x 10^10)
                 0.0000
    Dipole Moment (Debye)
         X       0.2324      Y      -0.1289      Z      -1.7793
       Tot       1.7990
    Quadrupole Moments (Debye-Ang)
        XX      -5.9062     XY      -0.0012     YY      -5.9855
        XZ      -0.0099     YZ      -0.2538     ZZ      -9.4931
    Octopole Moments (Debye-Ang^2)
       XXX      -3.9631    XXY      -1.0569    XYY      -1.3961
       YYY       0.5489    XXZ      -1.6782    XYZ      -0.1798
       YYZ      -1.9387    XZZ      -2.1755    YZZ      -0.1798
       ZZZ      -6.1367
    Hexadecapole Moments (Debye-Ang^3)
      XXXX     -10.8707   XXXY      -0.8822   XXYY      -3.3503
      XYYY       0.1847   YYYY      -9.1759   XXXZ      -1.1153
      XXYZ       0.0229   XYYZ      -0.4191   YYYZ      -0.2845
      XXZZ      -4.1819   XYZZ      -0.0117   YYZZ      -3.6496
      XZZZ      -1.4853   YZZZ      -0.0728   ZZZZ     -12.1422
 -----------------------------------------------------------------
 Calculating analytic gradient of the SCF energy
 Gradient of SCF Energy
            1           2           3           4
    1  -0.0001449   0.0093127  -0.0090553  -0.0001124
    2   0.0001952  -0.0052068  -0.0056270   0.0106386
    3   0.0011811   0.0011774  -0.0011969  -0.0011617
 Max gradient component =       1.064E-02
 RMS gradient           =       5.372E-03
 Gradient time:  CPU 0.11 s  wall 0.28 s
 ----------------------------------------------------------------
             Standard Nuclear Orientation (Angstroms)
    I     Atom           X                Y                Z
 ----------------------------------------------------------------
    1      N       0.2300172400     0.0185122229     0.2628836547
    2      H       1.0978749792    -0.4613769997     0.0645481160
    3      H      -0.5360324386    -0.4998265001    -0.1461372569
    4      H       0.2609396152     0.9428170720    -0.1462577746
 ----------------------------------------------------------------
 Nuclear Repulsion Energy =          11.95158948 hartrees
 There are        5 alpha and        5 beta electrons

                       Distance Matrix (Angstroms)
             N (  1)   H (  2)   H (  3)
   H (  2)  1.011340
   H (  3)  1.011338  1.647884
   H (  4)  1.011283  1.648230  1.648146
 
 Applying Cartesian multipole field
    Component          Value
    ---------          -----
     (2,0,0)        1.00000E-10
     (0,2,0)        2.00000E-10
     (0,0,2)       -3.00000E-10
 Nucleus-field energy     =     0.0000000011 hartrees
 Requested basis set is 6-31G(d)
 There are 10 shells and 21 basis functions
 A cutoff of  1.0D-11 yielded     55 shell pairs
 There are       258 function pairs
 Smallest overlap matrix eigenvalue = 2.26E-02
 Guess from superposition of atomic densities
 Warning:  Energy on first SCF cycle will be non-variational
 SAD guess density has 10.000000 electrons

 -----------------------------------------------------------------------
  General SCF calculation program by
  Eric Jon Sundstrom, Paul Horn, Yuezhi Mao, Dmitri Zuev, Alec White,
  David Stuck, Shaama M.S., Shane Yost, Joonho Lee, David Small,
  Daniel Levine, Susi Lehtola, Hugh Burton, Evgeny Epifanovsky,
  Bang C. Huynh
 -----------------------------------------------------------------------
 Hartree-Fock
 A restricted SCF calculation will be
 performed using DIIS
 SCF converges when DIIS error is below 1.0e-08
 ---------------------------------------
  Cycle       Energy         DIIS error
 ---------------------------------------
    1     -56.1847418814      1.77e-01  
    2     -56.1613828857      2.05e-02  
    3     -56.1803680964      8.48e-03  
    4     -56.1836174194      1.56e-03  
    5     -56.1837779417      2.49e-04  
    6     -56.1837839510      5.51e-05  
    7     -56.1837844965      1.35e-05  
    8     -56.1837845350      1.88e-06  
    9     -56.1837845356      3.27e-07  
   10     -56.1837845357      3.01e-08  
   11     -56.1837845357      2.77e-09  Convergence criterion met
 ---------------------------------------
 SCF time:   CPU 0.23s  wall 0.00s 
 SCF   energy in the final basis set =      -56.1837845357
 Total energy in the final basis set =      -56.1837845357
 
 --------------------------------------------------------------
 
                    Orbital Energies (a.u.)
 --------------------------------------------------------------
 
 Alpha MOs
 -- Occupied --
-15.5353  -1.1313  -0.6261  -0.6260  -0.4132
 -- Virtual --
  0.2221   0.3234   0.3234   0.9047   0.9048   0.9704   1.1852   1.2273
  1.2274   1.3443   1.9686   1.9687   2.3093   2.7516   2.7517   4.0943
 --------------------------------------------------------------
 
          Ground-State Mulliken Net Atomic Charges

     Atom                 Charge (a.u.)
  ----------------------------------------
      1 N                    -1.005375
      2 H                     0.335113
      3 H                     0.335104
      4 H                     0.335159
  ----------------------------------------
  Sum of atomic charges =     0.000000

 -----------------------------------------------------------------
                    Cartesian Multipole Moments
 -----------------------------------------------------------------
    Charge (ESU x 10^10)
                 0.0000
    Dipole Moment (Debye)
         X       0.2324      Y      -0.1289      Z      -1.7793
       Tot       1.7990
    Quadrupole Moments (Debye-Ang)
        XX      -5.9062     XY      -0.0012     YY      -5.9855
        XZ      -0.0099     YZ      -0.2538     ZZ      -9.4931
    Octopole Moments (Debye-Ang^2)
       XXX      -3.9631    XXY      -1.0569    XYY      -1.3961
       YYY       0.5489    XXZ      -1.6782    XYZ      -0.1798
       YYZ      -1.9387    XZZ      -2.1755    YZZ      -0.1798
       ZZZ      -6.1367
    Hexadecapole Moments (Debye-Ang^3)
      XXXX     -10.8707   XXXY      -0.8822   XXYY      -3.3503
      XYYY       0.1847   YYYY      -9.1759   XXXZ      -1.1153
      XXYZ       0.0229   XYYZ      -0.4191   YYYZ      -0.2845
      XXZZ      -4.1819   XYZZ      -0.0117   YYZZ      -3.6496
      XZZZ      -1.4853   YZZZ      -0.0728   ZZZZ     -12.1422
 -----------------------------------------------------------------
 Calculating analytic gradient of the SCF energy
 Gradient of SCF Energy
            1           2           3           4
    1  -0.0001449   0.0093127  -0.0090553  -0.0001124
    2   0.0001952  -0.0052068  -0.0056270   0.0106386
    3   0.0011811   0.0011775  -0.0011969  -0.0011617
 Max gradient component =       1.064E-02
 RMS gradient           =       5.372E-03
 Gradient time:  CPU 0.05 s  wall 0.06 s
 converged (energy) along this node, energy -56.1837845
done with opt_step_by_gradient, Reactant, iter2
-Optimizing new product side node
 Using BFGS, step: 3 E_tol 0.0000000
 max_steps 2, node_spacing 0.1346686, sigma 0.7000000
 ----------------------------------------------------------------
             Standard Nuclear Orientation (Angstroms)
    I     Atom           X                Y                Z
 ----------------------------------------------------------------
    1      N       0.2860202047    -0.0121021315    -0.1864482398
    2      H       1.0681017150    -0.4474042949     0.2841797920
    3      H      -0.5676589595    -0.4820705037     0.0836838588
    4      H       0.2318268672     0.9596025820     0.0880817997
 ----------------------------------------------------------------
 Nuclear Repulsion Energy =          11.95236210 hartrees
 There are        5 alpha and        5 beta electrons

                       Distance Matrix (Angstroms)
             N (  1)   H (  2)   H (  3)
   H (  2)  1.011252
   H (  3)  1.011242  1.648367
   H (  4)  1.011194  1.648478  1.648520
 
 Applying Cartesian multipole field
    Component          Value
    ---------          -----
     (2,0,0)        1.00000E-10
     (0,2,0)        2.00000E-10
     (0,0,2)       -3.00000E-10
 Nucleus-field energy     =     0.0000000014 hartrees
 Requested basis set is 6-31G(d)
 There are 10 shells and 21 basis functions
 A cutoff of  1.0D-11 yielded     55 shell pairs
 There are       258 function pairs
 Smallest overlap matrix eigenvalue = 2.26E-02
 Guess from superposition of atomic densities
 Warning:  Energy on first SCF cycle will be non-variational
 SAD guess density has 10.000000 electrons

 -----------------------------------------------------------------------
  General SCF calculation program by
  Eric Jon Sundstrom, Paul Horn, Yuezhi Mao, Dmitri Zuev, Alec White,
  David Stuck, Shaama M.S., Shane Yost, Joonho Lee, David Small,
  Daniel Levine, Susi Lehtola, Hugh Burton, Evgeny Epifanovsky,
  Bang C. Huynh
 -----------------------------------------------------------------------
 Hartree-Fock
 A restricted SCF calculation will be
 performed using DIIS
 SCF converges when DIIS error is below 1.0e-08
 ---------------------------------------
  Cycle       Energy         DIIS error
 ---------------------------------------
    1     -56.1848615666      1.77e-01  
    2     -56.1613779759      2.05e-02  
    3     -56.1803567128      8.48e-03  
    4     -56.1836064779      1.56e-03  
    5     -56.1837668469      2.48e-04  
    6     -56.1837728238      5.50e-05  
    7     -56.1837733658      1.34e-05  
    8     -56.1837734042      1.88e-06  
    9     -56.1837734048      3.27e-07  
   10     -56.1837734049      3.01e-08  
   11     -56.1837734049      2.77e-09  Convergence criterion met
 ---------------------------------------
 SCF time:   CPU 0.23s  wall 1.00s 
 SCF   energy in the final basis set =      -56.1837734049
 Total energy in the final basis set =      -56.1837734049
 
 --------------------------------------------------------------
 
                    Orbital Energies (a.u.)
 --------------------------------------------------------------
 
 Alpha MOs
 -- Occupied --
-15.5352  -1.1313  -0.6262  -0.6261  -0.4130
 -- Virtual --
  0.2222   0.3234   0.3234   0.9049   0.9049   0.9704   1.1847   1.2275
  1.2275   1.3439   1.9687   1.9687   2.3102   2.7516   2.7516   4.0944
 --------------------------------------------------------------
 
          Ground-State Mulliken Net Atomic Charges

     Atom                 Charge (a.u.)
  ----------------------------------------
      1 N                    -1.005684
      2 H                     0.335214
      3 H                     0.335222
      4 H                     0.335248
  ----------------------------------------
  Sum of atomic charges =     0.000000

 -----------------------------------------------------------------
                    Cartesian Multipole Moments
 -----------------------------------------------------------------
    Charge (ESU x 10^10)
                 0.0000
    Dipole Moment (Debye)
         X      -0.2204      Y       0.1166      Z       1.7783
       Tot       1.7957
    Quadrupole Moments (Debye-Ang)
        XX      -6.1320     XY       0.0573     YY      -5.9792
        XZ       0.8722     YZ      -0.2143     ZZ      -9.2306
    Octopole Moments (Debye-Ang^2)
       XXX      -5.2763    XXY      -0.8234    XYY      -1.7979
       YYY       1.2206    XXZ       1.8027    XYZ      -0.1672
       YYZ       1.3348    XZZ      -2.5585    YZZ       0.0674
       ZZZ       3.9987
    Hexadecapole Moments (Debye-Ang^3)
      XXXX     -12.1696   XXXY      -0.5668   XXYY      -3.6017
      XYYY       0.3002   YYYY      -9.0577   XXXZ       1.4197
      XXYZ      -0.3120   XYYZ       0.3851   YYYZ       0.1448
      XXZZ      -4.0960   XYZZ      -0.0390   YYZZ      -3.4571
      XZZZ       1.1008   YZZZ      -0.0265   ZZZZ     -10.5875
 -----------------------------------------------------------------
 Calculating analytic gradient of the SCF energy
 Gradient of SCF Energy
            1           2           3           4
    1   0.0001039   0.0092316  -0.0091667  -0.0001688
    2   0.0000109  -0.0051481  -0.0055412   0.0106784
    3  -0.0009740   0.0018235  -0.0004377  -0.0004118
 Max gradient component =       1.068E-02
 RMS gradient           =       5.363E-03
 Gradient time:  CPU 0.06 s  wall 0.07 s
 ----------------------------------------------------------------
             Standard Nuclear Orientation (Angstroms)
    I     Atom           X                Y                Z
 ----------------------------------------------------------------
    1      N       0.2860202045    -0.0121021314    -0.1864482392
    2      H       1.0681017092    -0.4474042916     0.2841797901
    3      H      -0.5676589536    -0.4820705001     0.0836838593
    4      H       0.2318268674     0.9596025751     0.0880817998
 ----------------------------------------------------------------
 Nuclear Repulsion Energy =          11.95236218 hartrees
 There are        5 alpha and        5 beta electrons

                       Distance Matrix (Angstroms)
             N (  1)   H (  2)   H (  3)
   H (  2)  1.011252
   H (  3)  1.011242  1.648367
   H (  4)  1.011194  1.648478  1.648520
 
 Applying Cartesian multipole field
    Component          Value
    ---------          -----
     (2,0,0)        1.00000E-10
     (0,2,0)        2.00000E-10
     (0,0,2)       -3.00000E-10
 Nucleus-field energy     =     0.0000000014 hartrees
 Requested basis set is 6-31G(d)
 There are 10 shells and 21 basis functions
 A cutoff of  1.0D-11 yielded     55 shell pairs
 There are       258 function pairs
 Smallest overlap matrix eigenvalue = 2.26E-02
 Guess from superposition of atomic densities
 Warning:  Energy on first SCF cycle will be non-variational
 SAD guess density has 10.000000 electrons

 -----------------------------------------------------------------------
  General SCF calculation program by
  Eric Jon Sundstrom, Paul Horn, Yuezhi Mao, Dmitri Zuev, Alec White,
  David Stuck, Shaama M.S., Shane Yost, Joonho Lee, David Small,
  Daniel Levine, Susi Lehtola, Hugh Burton, Evgeny Epifanovsky,
  Bang C. Huynh
 -----------------------------------------------------------------------
 Hartree-Fock
 A restricted SCF calculation will be
 performed using DIIS
 SCF converges when DIIS error is below 1.0e-08
 ---------------------------------------
  Cycle       Energy         DIIS error
 ---------------------------------------
    1     -56.1848615850      1.77e-01  
    2     -56.1613779761      2.05e-02  
    3     -56.1803567132      8.48e-03  
    4     -56.1836064783      1.56e-03  
    5     -56.1837668473      2.48e-04  
    6     -56.1837728242      5.50e-05  
    7     -56.1837733663      1.34e-05  
    8     -56.1837734046      1.88e-06  
    9     -56.1837734053      3.27e-07  
   10     -56.1837734053      3.01e-08  
   11     -56.1837734053      2.77e-09  Convergence criterion met
 ---------------------------------------
 SCF time:   CPU 0.23s  wall 0.00s 
 SCF   energy in the final basis set =      -56.1837734053
 Total energy in the final basis set =      -56.1837734053
 
 --------------------------------------------------------------
 
                    Orbital Energies (a.u.)
 --------------------------------------------------------------
 
 Alpha MOs
 -- Occupied --
-15.5352  -1.1313  -0.6262  -0.6261  -0.4130
 -- Virtual --
  0.2222   0.3234   0.3234   0.9049   0.9049   0.9704   1.1847   1.2275
  1.2275   1.3439   1.9687   1.9687   2.3102   2.7516   2.7516   4.0944
 --------------------------------------------------------------
 
          Ground-State Mulliken Net Atomic Charges

     Atom                 Charge (a.u.)
  ----------------------------------------
      1 N                    -1.005684
      2 H                     0.335214
      3 H                     0.335222
      4 H                     0.335248
  ----------------------------------------
  Sum of atomic charges =     0.000000

 -----------------------------------------------------------------
                    Cartesian Multipole Moments
 -----------------------------------------------------------------
    Charge (ESU x 10^10)
                 0.0000
    Dipole Moment (Debye)
         X      -0.2204      Y       0.1166      Z       1.7783
       Tot       1.7957
    Quadrupole Moments (Debye-Ang)
        XX      -6.1320     XY       0.0573     YY      -5.9792
        XZ       0.8722     YZ      -0.2143     ZZ      -9.2306
    Octopole Moments (Debye-Ang^2)
       XXX      -5.2763    XXY      -0.8234    XYY      -1.7979
       YYY       1.2206    XXZ       1.8027    XYZ      -0.1672
       YYZ       1.3348    XZZ      -2.5585    YZZ       0.0674
       ZZZ       3.9987
    Hexadecapole Moments (Debye-Ang^3)
      XXXX     -12.1696   XXXY      -0.5668   XXYY      -3.6017
      XYYY       0.3002   YYYY      -9.0577   XXXZ       1.4197
      XXYZ      -0.3120   XYYZ       0.3851   YYYZ       0.1448
      XXZZ      -4.0960   XYZZ      -0.0390   YYZZ      -3.4571
      XZZZ       1.1008   YZZZ      -0.0265   ZZZZ     -10.5875
 -----------------------------------------------------------------
 Calculating analytic gradient of the SCF energy
 Gradient of SCF Energy
            1           2           3           4
    1   0.0001039   0.0092315  -0.0091667  -0.0001688
    2   0.0000109  -0.0051481  -0.0055412   0.0106784
    3  -0.0009740   0.0018235  -0.0004377  -0.0004118
 Max gradient component =       1.068E-02
 RMS gradient           =       5.363E-03
 Gradient time:  CPU 0.05 s  wall 0.08 s
 converged (energy) along this node, energy -56.1837734
 After opt distance between the previous and current R_nodes (Angstroms): 0.0277
 After opt distance between the previous and current P_nodes (Angstroms): 0.0256
-Printing perpgrad.txt, Vfile.txt, and stringfile.txt

STARTING FREEZING STRING ITERATION # 3
 The distance between the innermost nodes (Angstroms): 0.605
-Adding two new nodes
 The distance between the previous and current R_nodes (Angstroms): 0.0306
 The distance between the previous and current P_nodes (Angstroms): 0.0304
-Optimizing new reactant side node
 Using BFGS, step: 4 E_tol 0.0000
 max_steps 2, node_spacing 0.1347, sigma 0.7000
 ----------------------------------------------------------------
             Standard Nuclear Orientation (Angstroms)
    I     Atom           X                Y                Z
 ----------------------------------------------------------------
    1      N       0.2333476486     0.0186242788     0.2350006037
    2      H       1.1035137721    -0.4627664189     0.0679819409
    3      H      -0.5410123288    -0.5016059735    -0.1478232150
    4      H       0.2614289848     0.9509738539    -0.1478433464
 ----------------------------------------------------------------
 Nuclear Repulsion Energy =          11.97743946 hartrees
 There are        5 alpha and        5 beta electrons

                       Distance Matrix (Angstroms)
             N (  1)   H (  2)   H (  3)
   H (  2)  1.008376
   H (  3)  1.008378  1.659080
   H (  4)  1.008283  1.659623  1.659488
 
 Applying Cartesian multipole field
    Component          Value
    ---------          -----
     (2,0,0)        1.00000E-10
     (0,2,0)        2.00000E-10
     (0,0,2)       -3.00000E-10
 Nucleus-field energy     =     0.0000000012 hartrees
 Requested basis set is 6-31G(d)
 There are 10 shells and 21 basis functions
 A cutoff of  1.0D-11 yielded     55 shell pairs
 There are       258 function pairs
 Smallest overlap matrix eigenvalue = 2.28E-02
 Guess from superposition of atomic densities
 Warning:  Energy on first SCF cycle will be non-variational
 SAD guess density has 10.000000 electrons

 -----------------------------------------------------------------------
  General SCF calculation program by
  Eric Jon Sundstrom, Paul Horn, Yuezhi Mao, Dmitri Zuev, Alec White,
  David Stuck, Shaama M.S., Shane Yost, Joonho Lee, David Small,
  Daniel Levine, Susi Lehtola, Hugh Burton, Evgeny Epifanovsky,
  Bang C. Huynh
 -----------------------------------------------------------------------
 Hartree-Fock
 A restricted SCF calculation will be
 performed using DIIS
 SCF converges when DIIS error is below 1.0e-08
 ---------------------------------------
  Cycle       Energy         DIIS error
 ---------------------------------------
    1     -56.1888652890      1.77e-01  
    2     -56.1610648215      2.05e-02  
    3     -56.1798452874      8.50e-03  
    4     -56.1831123597      1.54e-03  
    5     -56.1832679644      2.32e-04  
    6     -56.1832729848      5.09e-05  
    7     -56.1832734286      1.24e-05  
    8     -56.1832734611      1.82e-06  
    9     -56.1832734618      3.29e-07  
   10     -56.1832734618      3.19e-08  
   11     -56.1832734618      2.85e-09  Convergence criterion met
 ---------------------------------------
 SCF time:   CPU 0.27s  wall 1.00s 
 SCF   energy in the final basis set =      -56.1832734618
 Total energy in the final basis set =      -56.1832734618
 
 --------------------------------------------------------------
 
                    Orbital Energies (a.u.)
 --------------------------------------------------------------
 
 Alpha MOs
 -- Occupied --
-15.5325  -1.1293  -0.6291  -0.6289  -0.4081
 -- Virtual --
  0.2235   0.3247   0.3247   0.9093   0.9096   0.9705   1.1693   1.2323
  1.2325   1.3347   1.9707   1.9708   2.3379   2.7499   2.7500   4.0993
 --------------------------------------------------------------
 
          Ground-State Mulliken Net Atomic Charges

     Atom                 Charge (a.u.)
  ----------------------------------------
      1 N                    -1.015389
      2 H                     0.338444
      3 H                     0.338428
      4 H                     0.338517
  ----------------------------------------
  Sum of atomic charges =     0.000000

 -----------------------------------------------------------------
                    Cartesian Multipole Moments
 -----------------------------------------------------------------
    Charge (ESU x 10^10)
                 0.0000
    Dipole Moment (Debye)
         X       0.2214      Y      -0.1230      Z      -1.6659
       Tot       1.6851
    Quadrupole Moments (Debye-Ang)
        XX      -5.8352     XY       0.0021     YY      -5.9063
        XZ       0.0318     YZ      -0.2634     ZZ      -9.4433
    Octopole Moments (Debye-Ang^2)
       XXX      -3.9670    XXY      -1.0961    XYY      -1.3987
       YYY       0.5913    XXZ      -1.4770    XYZ      -0.1898
       YYZ      -1.7629    XZZ      -2.1955    YZZ      -0.1798
       ZZZ      -5.4889
    Hexadecapole Moments (Debye-Ang^3)
      XXXX     -10.7817   XXXY      -0.9137   XXYY      -3.3202
      XYYY       0.1958   YYYY      -9.0495   XXXZ      -0.9793
      XXYZ       0.0147   XYYZ      -0.3790   YYYZ      -0.2820
      XXZZ      -4.1007   XYZZ      -0.0140   YYZZ      -3.5589
      XZZZ      -1.3605   YZZZ      -0.0582   ZZZZ     -11.5132
 -----------------------------------------------------------------
 Calculating analytic gradient of the SCF energy
 Gradient of SCF Energy
            1           2           3           4
    1   0.0007528   0.0086216  -0.0089657  -0.0004087
    2  -0.0002236  -0.0048608  -0.0052587   0.0103431
    3  -0.0055153   0.0033649   0.0010464   0.0011041
 Max gradient component =       1.034E-02
 RMS gradient           =       5.461E-03
 Gradient time:  CPU 0.05 s  wall 0.07 s
 ----------------------------------------------------------------
             Standard Nuclear Orientation (Angstroms)
    I     Atom           X                Y                Z
 ----------------------------------------------------------------
    1      N       0.2333476477     0.0186242788     0.2350006069
    2      H       1.1035137664    -0.4627664159     0.0679819413
    3      H      -0.5410123228    -0.5016059701    -0.1478232167
    4      H       0.2614289854     0.9509738473    -0.1478433464
 ----------------------------------------------------------------
 Nuclear Repulsion Energy =          11.97743953 hartrees
 There are        5 alpha and        5 beta electrons

                       Distance Matrix (Angstroms)
             N (  1)   H (  2)   H (  3)
   H (  2)  1.008376
   H (  3)  1.008378  1.659080
   H (  4)  1.008283  1.659623  1.659488
 
 Applying Cartesian multipole field
    Component          Value
    ---------          -----
     (2,0,0)        1.00000E-10
     (0,2,0)        2.00000E-10
     (0,0,2)       -3.00000E-10
 Nucleus-field energy     =     0.0000000012 hartrees
 Requested basis set is 6-31G(d)
 There are 10 shells and 21 basis functions
 A cutoff of  1.0D-11 yielded     55 shell pairs
 There are       258 function pairs
 Smallest overlap matrix eigenvalue = 2.28E-02
 Guess from superposition of atomic densities
 Warning:  Energy on first SCF cycle will be non-variational
 SAD guess density has 10.000000 electrons

 -----------------------------------------------------------------------
  General SCF calculation program by
  Eric Jon Sundstrom, Paul Horn, Yuezhi Mao, Dmitri Zuev, Alec White,
  David Stuck, Shaama M.S., Shane Yost, Joonho Lee, David Small,
  Daniel Levine, Susi Lehtola, Hugh Burton, Evgeny Epifanovsky,
  Bang C. Huynh
 -----------------------------------------------------------------------
 Hartree-Fock
 A restricted SCF calculation will be
 performed using DIIS
 SCF converges when DIIS error is below 1.0e-08
 ---------------------------------------
  Cycle       Energy         DIIS error
 ---------------------------------------
    1     -56.1888653031      1.77e-01  
    2     -56.1610648217      2.05e-02  
    3     -56.1798452878      8.50e-03  
    4     -56.1831123601      1.54e-03  
    5     -56.1832679648      2.32e-04  
    6     -56.1832729852      5.09e-05  
    7     -56.1832734291      1.24e-05  
    8     -56.1832734616      1.82e-06  
    9     -56.1832734622      3.29e-07  
   10     -56.1832734623      3.19e-08  
   11     -56.1832734623      2.85e-09  Convergence criterion met
 ---------------------------------------
 SCF time:   CPU 0.22s  wall 0.00s 
 SCF   energy in the final basis set =      -56.1832734623
 Total energy in the final basis set =      -56.1832734623
 
 --------------------------------------------------------------
 
                    Orbital Energies (a.u.)
 --------------------------------------------------------------
 
 Alpha MOs
 -- Occupied --
-15.5325  -1.1293  -0.6291  -0.6289  -0.4081
 -- Virtual --
  0.2235   0.3247   0.3247   0.9093   0.9096   0.9705   1.1693   1.2323
  1.2325   1.3347   1.9707   1.9708   2.3379   2.7499   2.7500   4.0993
 --------------------------------------------------------------
 
          Ground-State Mulliken Net Atomic Charges

     Atom                 Charge (a.u.)
  ----------------------------------------
      1 N                    -1.015389
      2 H                     0.338444
      3 H                     0.338428
      4 H                     0.338517
  ----------------------------------------
  Sum of atomic charges =     0.000000

 -----------------------------------------------------------------
                    Cartesian Multipole Moments
 -----------------------------------------------------------------
    Charge (ESU x 10^10)
                 0.0000
    Dipole Moment (Debye)
         X       0.2214      Y      -0.1230      Z      -1.6659
       Tot       1.6851
    Quadrupole Moments (Debye-Ang)
        XX      -5.8352     XY       0.0021     YY      -5.9063
        XZ       0.0318     YZ      -0.2634     ZZ      -9.4433
    Octopole Moments (Debye-Ang^2)
       XXX      -3.9670    XXY      -1.0961    XYY      -1.3987
       YYY       0.5913    XXZ      -1.4770    XYZ      -0.1898
       YYZ      -1.7629    XZZ      -2.1955    YZZ      -0.1798
       ZZZ      -5.4889
    Hexadecapole Moments (Debye-Ang^3)
      XXXX     -10.7817   XXXY      -0.9137   XXYY      -3.3202
      XYYY       0.1958   YYYY      -9.0495   XXXZ      -0.9793
      XXYZ       0.0147   XYYZ      -0.3790   YYYZ      -0.2820
      XXZZ      -4.1007   XYZZ      -0.0140   YYZZ      -3.5589
      XZZZ      -1.3605   YZZZ      -0.0582   ZZZZ     -11.5132
 -----------------------------------------------------------------
 Calculating analytic gradient of the SCF energy
 Gradient of SCF Energy
            1           2           3           4
    1   0.0007528   0.0086215  -0.0089657  -0.0004087
    2  -0.0002236  -0.0048608  -0.0052587   0.0103431
    3  -0.0055153   0.0033649   0.0010464   0.0011041
 Max gradient component =       1.034E-02
 RMS gradient           =       5.461E-03
 Gradient time:  CPU 0.05 s  wall 0.07 s
 converged (energy) along this node, energy -56.1832735
done with opt_step_by_gradient, Reactant, iter3
-Optimizing new product side node
 Using BFGS, step: 4 E_tol 0.0000000
 max_steps 2, node_spacing 0.1346686, sigma 0.7000000
 ----------------------------------------------------------------
             Standard Nuclear Orientation (Angstroms)
    I     Atom           X                Y                Z
 ----------------------------------------------------------------
    1      N       0.2850027823    -0.0105070192    -0.1752921681
    2      H       1.0746866141    -0.4498357360     0.2723915897
    3      H      -0.5710937889    -0.4849608503     0.0675933536
    4      H       0.2335474522     0.9659470698     0.0711817101
 ----------------------------------------------------------------
 Nuclear Repulsion Energy =          11.97656930 hartrees
 There are        5 alpha and        5 beta electrons

                       Distance Matrix (Angstroms)
             N (  1)   H (  2)   H (  3)
   H (  2)  1.008480
   H (  3)  1.008465  1.658846
   H (  4)  1.008395  1.659048  1.659094
 
 Applying Cartesian multipole field
    Component          Value
    ---------          -----
     (2,0,0)        1.00000E-10
     (0,2,0)        2.00000E-10
     (0,0,2)       -3.00000E-10
 Nucleus-field energy     =     0.0000000014 hartrees
 Requested basis set is 6-31G(d)
 There are 10 shells and 21 basis functions
 A cutoff of  1.0D-11 yielded     55 shell pairs
 There are       258 function pairs
 Smallest overlap matrix eigenvalue = 2.28E-02
 Guess from superposition of atomic densities
 Warning:  Energy on first SCF cycle will be non-variational
 SAD guess density has 10.000000 electrons

 -----------------------------------------------------------------------
  General SCF calculation program by
  Eric Jon Sundstrom, Paul Horn, Yuezhi Mao, Dmitri Zuev, Alec White,
  David Stuck, Shaama M.S., Shane Yost, Joonho Lee, David Small,
  Daniel Levine, Susi Lehtola, Hugh Burton, Evgeny Epifanovsky,
  Bang C. Huynh
 -----------------------------------------------------------------------
 Hartree-Fock
 A restricted SCF calculation will be
 performed using DIIS
 SCF converges when DIIS error is below 1.0e-08
 ---------------------------------------
  Cycle       Energy         DIIS error
 ---------------------------------------
    1     -56.1887285897      1.77e-01  
    2     -56.1610819189      2.05e-02  
    3     -56.1798699144      8.50e-03  
    4     -56.1831362607      1.55e-03  
    5     -56.1832920402      2.32e-04  
    6     -56.1832970941      5.11e-05  
    7     -56.1832975413      1.24e-05  
    8     -56.1832975740      1.82e-06  
    9     -56.1832975746      3.29e-07  
   10     -56.1832975747      3.18e-08  
   11     -56.1832975747      2.85e-09  Convergence criterion met
 ---------------------------------------
 SCF time:   CPU 0.22s  wall 0.00s 
 SCF   energy in the final basis set =      -56.1832975747
 Total energy in the final basis set =      -56.1832975747
 
 --------------------------------------------------------------
 
                    Orbital Energies (a.u.)
 --------------------------------------------------------------
 
 Alpha MOs
 -- Occupied --
-15.5326  -1.1294  -0.6289  -0.6288  -0.4082
 -- Virtual --
  0.2235   0.3246   0.3247   0.9092   0.9093   0.9705   1.1699   1.2322
  1.2323   1.3350   1.9706   1.9707   2.3369   2.7500   2.7500   4.0992
 --------------------------------------------------------------
 
          Ground-State Mulliken Net Atomic Charges

     Atom                 Charge (a.u.)
  ----------------------------------------
      1 N                    -1.015027
      2 H                     0.338322
      3 H                     0.338331
      4 H                     0.338374
  ----------------------------------------
  Sum of atomic charges =     0.000000

 -----------------------------------------------------------------
                    Cartesian Multipole Moments
 -----------------------------------------------------------------
    Charge (ESU x 10^10)
                 0.0000
    Dipole Moment (Debye)
         X      -0.2105      Y       0.1123      Z       1.6724
       Tot       1.6894
    Quadrupole Moments (Debye-Ang)
        XX      -6.0556     XY       0.0578     YY      -5.9052
        XZ       0.8625     YZ      -0.2242     ZZ      -9.2501
    Octopole Moments (Debye-Ang^2)
       XXX      -5.1972    XXY      -0.8705    XYY      -1.7740
       YYY       1.2309    XXZ       1.7341    XYZ      -0.1760
       YYZ       1.2542    XZZ      -2.5607    YZZ       0.0560
       ZZZ       3.8146
    Hexadecapole Moments (Debye-Ang^3)
      XXXX     -12.0075   XXXY      -0.6084   XXYY      -3.5580
      XYYY       0.3046   YYYY      -8.9429   XXXZ       1.3733
      XXYZ      -0.3011   XYYZ       0.3672   YYYZ       0.1287
      XXZZ      -4.0737   XYZZ      -0.0408   YYZZ      -3.4338
      XZZZ       1.0365   YZZZ      -0.0135   ZZZZ     -10.3958
 -----------------------------------------------------------------
 Calculating analytic gradient of the SCF energy
 Gradient of SCF Energy
            1           2           3           4
    1  -0.0006877   0.0091256  -0.0085406   0.0001027
    2   0.0004744  -0.0051005  -0.0054796   0.0101057
    3   0.0052826  -0.0002909  -0.0024970  -0.0024948
 Max gradient component =       1.011E-02
 RMS gradient           =       5.443E-03
 Gradient time:  CPU 0.05 s  wall 0.07 s
 ----------------------------------------------------------------
             Standard Nuclear Orientation (Angstroms)
    I     Atom           X                Y                Z
 ----------------------------------------------------------------
    1      N       0.2850027831    -0.0105070194    -0.1752921671
    2      H       1.0746866065    -0.4498357334     0.2723915926
    3      H      -0.5710937832    -0.4849608463     0.0675933514
    4      H       0.2335474526     0.9659470624     0.0711817117
 ----------------------------------------------------------------
 Nuclear Repulsion Energy =          11.97656938 hartrees
 There are        5 alpha and        5 beta electrons

                       Distance Matrix (Angstroms)
             N (  1)   H (  2)   H (  3)
   H (  2)  1.008480
   H (  3)  1.008465  1.658846
   H (  4)  1.008395  1.659048  1.659094
 
 Applying Cartesian multipole field
    Component          Value
    ---------          -----
     (2,0,0)        1.00000E-10
     (0,2,0)        2.00000E-10
     (0,0,2)       -3.00000E-10
[...]
    2      H       1.1203927116    -0.4723764076     0.1660682251
    3      H      -0.5864360031    -0.5115114974    -0.0581145420
    4      H       0.2483075639     0.9947513827    -0.0563965046
 ----------------------------------------------------------------
 Nuclear Repulsion Energy =          12.10078428 hartrees
 There are        5 alpha and        5 beta electrons

                       Distance Matrix (Angstroms)
             N (  1)   H (  2)   H (  3)
   H (  2)  0.994174
   H (  3)  0.994011  1.721933
   H (  4)  0.994100  1.721188  1.722100
 
 Applying Cartesian multipole field
    Component          Value
    ---------          -----
     (2,0,0)        1.00000E-10
     (0,2,0)        2.00000E-10
     (0,0,2)       -3.00000E-10
 Nucleus-field energy     =     0.0000000018 hartrees
 Requested basis set is 6-31G(d)
 There are 10 shells and 21 basis functions
 A cutoff of  1.0D-11 yielded     55 shell pairs
 There are       258 function pairs
 Smallest overlap matrix eigenvalue = 2.39E-02
 Guess from superposition of atomic densities
 Warning:  Energy on first SCF cycle will be non-variational
 SAD guess density has 10.000000 electrons

 -----------------------------------------------------------------------
  General SCF calculation program by
  Eric Jon Sundstrom, Paul Horn, Yuezhi Mao, Dmitri Zuev, Alec White,
  David Stuck, Shaama M.S., Shane Yost, Joonho Lee, David Small,
  Daniel Levine, Susi Lehtola, Hugh Burton, Evgeny Epifanovsky,
  Bang C. Huynh
 -----------------------------------------------------------------------
 Hartree-Fock
 A restricted SCF calculation will be
 performed using DIIS
 SCF converges when DIIS error is below 1.0e-08
 ---------------------------------------
  Cycle       Energy         DIIS error
 ---------------------------------------
    1     -56.2078308694      1.79e-01  
    2     -56.1530204145      2.03e-02  
    3     -56.1702783013      8.76e-03  
    4     -56.1737808252      1.39e-03  
    5     -56.1739043246      1.03e-04  
    6     -56.1739051716      1.29e-05  
    7     -56.1739051943      2.78e-06  
    8     -56.1739051952      4.17e-07  
    9     -56.1739051953      5.60e-08  
   10     -56.1739051953      1.00e-08  
   11     -56.1739051953      2.61e-09  Convergence criterion met
 ---------------------------------------
 SCF time:   CPU 0.23s  wall 0.00s 
 SCF   energy in the final basis set =      -56.1739051953
 Total energy in the final basis set =      -56.1739051953
 
 --------------------------------------------------------------
 
                    Orbital Energies (a.u.)
 --------------------------------------------------------------
 
 Alpha MOs
 -- Occupied --
-15.5164  -1.1157  -0.6431  -0.6428  -0.3790
 -- Virtual --
  0.2302   0.3308   0.3308   0.9399   0.9405   0.9744   1.0543   1.2601
  1.2604   1.3246   1.9946   1.9947   2.5084   2.7008   2.7017   4.1265
 --------------------------------------------------------------
 
          Ground-State Mulliken Net Atomic Charges

     Atom                 Charge (a.u.)
  ----------------------------------------
      1 N                    -1.082820
      2 H                     0.360868
      3 H                     0.361042
      4 H                     0.360910
  ----------------------------------------
  Sum of atomic charges =     0.000000

 -----------------------------------------------------------------
                    Cartesian Multipole Moments
 -----------------------------------------------------------------
    Charge (ESU x 10^10)
                 0.0000
    Dipole Moment (Debye)
         X       0.0086      Y      -0.0040      Z      -0.0583
       Tot       0.0590
    Quadrupole Moments (Debye-Ang)
        XX      -5.4925     XY       0.0387     YY      -5.4507
        XZ       0.4970     YZ      -0.2793     ZZ      -9.2815
    Octopole Moments (Debye-Ang^2)
       XXX      -4.2188    XXY      -1.2355    XYY      -1.4822
       YYY       1.1735    XXZ       0.1970    XYZ      -0.2285
       YYZ      -0.2622    XZZ      -2.3611    YZZ      -0.0640
       ZZZ      -0.7154
    Hexadecapole Moments (Debye-Ang^3)
      XXXX     -10.4829   XXXY      -0.9603   XXYY      -3.1801
      XYYY       0.3210   YYYY      -8.2734   XXXZ       0.2394
      XXYZ      -0.1513   XYYZ      -0.0082   YYYZ      -0.0872
      XXZZ      -3.8084   XYZZ      -0.0384   YYZZ      -3.2362
      XZZZ      -0.2899   YZZZ       0.0540   ZZZZ      -8.9508
 -----------------------------------------------------------------
 Calculating analytic gradient of the SCF energy
 Gradient of SCF Energy
            1           2           3           4
    1  -0.0001193   0.0051413  -0.0050178  -0.0000043
    2  -0.0001786  -0.0027254  -0.0030092   0.0059132
    3  -0.0015085   0.0013816   0.0000553   0.0000716
 Max gradient component =       5.913E-03
 RMS gradient           =       2.990E-03
 Gradient time:  CPU 0.06 s  wall 0.07 s
 E1 = -56.1738914, E2 = -56.1739052, Emax = -56.1738928
 Iteration 4, Curvature = -0.3829671
 ----------------------------------------------------------------
             Standard Nuclear Orientation (Angstroms)
    I     Atom           X                Y                Z
 ----------------------------------------------------------------
    1      N       0.2602535070     0.0035552896     0.0179121693
    2      H       1.1199617425    -0.4721621882     0.1693931681
    3      H      -0.5869247346    -0.5112753486    -0.0546979141
    4      H       0.2478610077     0.9950342885    -0.0530051168
 ----------------------------------------------------------------
 Nuclear Repulsion Energy =          12.10089570 hartrees
 There are        5 alpha and        5 beta electrons

                       Distance Matrix (Angstroms)
             N (  1)   H (  2)   H (  3)
   H (  2)  0.994159
   H (  3)  0.993999  1.721978
   H (  4)  0.994089  1.721246  1.722161
 
 Applying Cartesian multipole field
    Component          Value
    ---------          -----
     (2,0,0)        1.00000E-10
     (0,2,0)        2.00000E-10
     (0,0,2)       -3.00000E-10
 Nucleus-field energy     =     0.0000000018 hartrees
 Requested basis set is 6-31G(d)
 There are 10 shells and 21 basis functions
 A cutoff of  1.0D-11 yielded     55 shell pairs
 There are       258 function pairs
 Smallest overlap matrix eigenvalue = 2.39E-02
 Guess from superposition of atomic densities
 Warning:  Energy on first SCF cycle will be non-variational
 SAD guess density has 10.000000 electrons

 -----------------------------------------------------------------------
  General SCF calculation program by
  Eric Jon Sundstrom, Paul Horn, Yuezhi Mao, Dmitri Zuev, Alec White,
  David Stuck, Shaama M.S., Shane Yost, Joonho Lee, David Small,
  Daniel Levine, Susi Lehtola, Hugh Burton, Evgeny Epifanovsky,
  Bang C. Huynh
 -----------------------------------------------------------------------
 Hartree-Fock
 A restricted SCF calculation will be
 performed using DIIS
 SCF converges when DIIS error is below 1.0e-08
 ---------------------------------------
  Cycle       Energy         DIIS error
 ---------------------------------------
    1     -56.2078483137      1.79e-01  
    2     -56.1530081418      2.03e-02  
    3     -56.1702642554      8.76e-03  
    4     -56.1737671324      1.39e-03  
    5     -56.1738905960      1.02e-04  
    6     -56.1738914408      1.26e-05  
    7     -56.1738914630      2.25e-06  
    8     -56.1738914636      2.92e-07  
    9     -56.1738914636      3.42e-08  
   10     -56.1738914636      5.27e-09  Convergence criterion met
 ---------------------------------------
 SCF time:   CPU 0.21s  wall 1.00s 
 SCF   energy in the final basis set =      -56.1738914636
 Total energy in the final basis set =      -56.1738914636
 
 --------------------------------------------------------------
 
                    Orbital Energies (a.u.)
 --------------------------------------------------------------
 
 Alpha MOs
 -- Occupied --
-15.5164  -1.1157  -0.6431  -0.6428  -0.3789
 -- Virtual --
  0.2302   0.3308   0.3308   0.9399   0.9406   0.9744   1.0542   1.2602
  1.2604   1.3246   1.9946   1.9948   2.5086   2.7007   2.7016   4.1265
 --------------------------------------------------------------
 
          Ground-State Mulliken Net Atomic Charges

     Atom                 Charge (a.u.)
  ----------------------------------------
      1 N                    -1.082893
      2 H                     0.360892
      3 H                     0.361066
      4 H                     0.360935
  ----------------------------------------
  Sum of atomic charges =     0.000000

 -----------------------------------------------------------------
                    Cartesian Multipole Moments
 -----------------------------------------------------------------
    Charge (ESU x 10^10)
                 0.0000
    Dipole Moment (Debye)
         X      -0.0012      Y       0.0014      Z       0.0159
       Tot       0.0160
    Quadrupole Moments (Debye-Ang)
        XX      -5.4972     XY       0.0400     YY      -5.4502
        XZ       0.5159     YZ      -0.2789     ZZ      -9.2785
    Octopole Moments (Debye-Ang^2)
       XXX      -4.2469    XXY      -1.2307    XYY      -1.4908
       YYY       1.1882    XXZ       0.2683    XYZ      -0.2285
       YYZ      -0.1958    XZZ      -2.3711    YZZ      -0.0581
       ZZZ      -0.5016
    Hexadecapole Moments (Debye-Ang^3)
      XXXX     -10.5102   XXXY      -0.9540   XXYY      -3.1852
      XYYY       0.3237   YYYY      -8.2704   XXXZ       0.2920
      XXYZ      -0.1577   XYYZ       0.0084   YYYZ      -0.0793
      XXZZ      -3.8099   XYZZ      -0.0386   YYZZ      -3.2344
      XZZZ      -0.2347   YZZZ       0.0550   ZZZZ      -8.9315
 -----------------------------------------------------------------
 Calculating analytic gradient of the SCF energy
 Gradient of SCF Energy
            1           2           3           4
    1  -0.0003664   0.0052153  -0.0049278   0.0000789
    2  -0.0000436  -0.0027675  -0.0030527   0.0058638
    3   0.0003632   0.0007584  -0.0005706  -0.0005511
 Max gradient component =       5.864E-03
 RMS gradient           =       2.948E-03
 Gradient time:  CPU 0.06 s  wall 0.07 s
 ----------------------------------------------------------------
             Standard Nuclear Orientation (Angstroms)
    I     Atom           X                Y                Z
 ----------------------------------------------------------------
    1      N       0.2590584968     0.0042055363     0.0269366140
    2      H       1.1203735629    -0.4723719165     0.1661676574
    3      H      -0.5864591234    -0.5114969048    -0.0579820226
    4      H       0.2482922388     0.9947606412    -0.0562668215
 ----------------------------------------------------------------
 Nuclear Repulsion Energy =          12.10078552 hartrees
 There are        5 alpha and        5 beta electrons

                       Distance Matrix (Angstroms)
             N (  1)   H (  2)   H (  3)
   H (  2)  0.994171
   H (  3)  0.994012  1.721933
   H (  4)  0.994102  1.721186  1.722099
 
 Applying Cartesian multipole field
    Component          Value
    ---------          -----
     (2,0,0)        1.00000E-10
     (0,2,0)        2.00000E-10
     (0,0,2)       -3.00000E-10
 Nucleus-field energy     =     0.0000000018 hartrees
 Requested basis set is 6-31G(d)
 There are 10 shells and 21 basis functions
 A cutoff of  1.0D-11 yielded     55 shell pairs
 There are       258 function pairs
 Smallest overlap matrix eigenvalue = 2.39E-02
 Guess from superposition of atomic densities
 Warning:  Energy on first SCF cycle will be non-variational
 SAD guess density has 10.000000 electrons

 -----------------------------------------------------------------------
  General SCF calculation program by
  Eric Jon Sundstrom, Paul Horn, Yuezhi Mao, Dmitri Zuev, Alec White,
  David Stuck, Shaama M.S., Shane Yost, Joonho Lee, David Small,
  Daniel Levine, Susi Lehtola, Hugh Burton, Evgeny Epifanovsky,
  Bang C. Huynh
 -----------------------------------------------------------------------
 Hartree-Fock
 A restricted SCF calculation will be
 performed using DIIS
 SCF converges when DIIS error is below 1.0e-08
 ---------------------------------------
  Cycle       Energy         DIIS error
 ---------------------------------------
    1     -56.2078312204      1.79e-01  
    2     -56.1530205733      2.03e-02  
    3     -56.1702784914      8.76e-03  
    4     -56.1737810111      1.39e-03  
    5     -56.1739045110      1.03e-04  
    6     -56.1739053580      1.29e-05  
    7     -56.1739053807      2.78e-06  
    8     -56.1739053817      4.17e-07  
    9     -56.1739053817      5.61e-08  
   10     -56.1739053817      1.00e-08  
   11     -56.1739053817      2.62e-09  Convergence criterion met
 ---------------------------------------
 SCF time:   CPU 0.23s  wall 0.00s 
 SCF   energy in the final basis set =      -56.1739053817
 Total energy in the final basis set =      -56.1739053817
 
 --------------------------------------------------------------
 
                    Orbital Energies (a.u.)
 --------------------------------------------------------------
 
 Alpha MOs
 -- Occupied --
-15.5164  -1.1157  -0.6431  -0.6428  -0.3790
 -- Virtual --
  0.2302   0.3308   0.3308   0.9399   0.9405   0.9744   1.0543   1.2601
  1.2604   1.3246   1.9946   1.9947   2.5084   2.7008   2.7017   4.1265
 --------------------------------------------------------------
 
          Ground-State Mulliken Net Atomic Charges

     Atom                 Charge (a.u.)
  ----------------------------------------
      1 N                    -1.082819
      2 H                     0.360868
      3 H                     0.361042
      4 H                     0.360909
  ----------------------------------------
  Sum of atomic charges =     0.000000

 -----------------------------------------------------------------
                    Cartesian Multipole Moments
 -----------------------------------------------------------------
    Charge (ESU x 10^10)
                 0.0000
    Dipole Moment (Debye)
         X       0.0087      Y      -0.0040      Z      -0.0586
       Tot       0.0594
    Quadrupole Moments (Debye-Ang)
        XX      -5.4925     XY       0.0386     YY      -5.4507
        XZ       0.4968     YZ      -0.2792     ZZ      -9.2816
    Octopole Moments (Debye-Ang^2)
       XXX      -4.2184    XXY      -1.2356    XYY      -1.4820
       YYY       1.1733    XXZ       0.1958    XYZ      -0.2284
       YYZ      -0.2632    XZZ      -2.3607    YZZ      -0.0642
       ZZZ      -0.7202
    Hexadecapole Moments (Debye-Ang^3)
      XXXX     -10.4824   XXXY      -0.9603   XXYY      -3.1800
      XYYY       0.3209   YYYY      -8.2733   XXXZ       0.2386
      XXYZ      -0.1515   XYYZ      -0.0085   YYYZ      -0.0870
      XXZZ      -3.8083   XYZZ      -0.0384   YYZZ      -3.2363
      XZZZ      -0.2911   YZZZ       0.0539   ZZZZ      -8.9513
 -----------------------------------------------------------------
 Calculating analytic gradient of the SCF energy
 Gradient of SCF Energy
            1           2           3           4
    1  -0.0001141   0.0051383  -0.0050192  -0.0000049
    2  -0.0001830  -0.0027234  -0.0030090   0.0059154
    3  -0.0015166   0.0013840   0.0000582   0.0000744
 Max gradient component =       5.915E-03
 RMS gradient           =       2.991E-03
 Gradient time:  CPU 0.10 s  wall 0.11 s
 E1 = -56.1738915, E2 = -56.1739054, Emax = -56.1738928
 Iteration 5, Curvature = -0.3854065
 Curvature, final (in Hartree/Bohr^2) = -0.1079248
 ----------------------------------------------------------------
             Standard Nuclear Orientation (Angstroms)
    I     Atom           X                Y                Z
 ----------------------------------------------------------------
    1      N       0.2596560019     0.0038804129     0.0224243917
    2      H       1.1201676527    -0.4722670524     0.1677804127
    3      H      -0.5866919290    -0.5113861267    -0.0563399683
    4      H       0.2480766232     0.9948974649    -0.0546359691
 ----------------------------------------------------------------
 Nuclear Repulsion Energy =          12.10105877 hartrees
 There are        5 alpha and        5 beta electrons
 Requested basis set is 6-31G(d)
 There are 10 shells and 21 basis functions
 Geometry Optimization Parameters
   NAtoms,    NIC,     NZ,  NCons,   NDum,   NFix, NCnnct, MaxDiis
        4      17       0       0       0       0       0       0


** GEOMETRY OPTIMIZATION IN DELOCALIZED INTERNAL COORDINATES **
   Searching for a Minimum

   Optimization Cycle:   1

                       Coordinates (Angstroms)
     ATOM                X               Y               Z
      1  N         0.2596560019    0.0038804129    0.0224243917
      2  H         1.1201676527   -0.4722670524    0.1677804127
      3  H        -0.5866919290   -0.5113861267   -0.0563399683
      4  H         0.2480766232    0.9948974649   -0.0546359691
   Point Group: c1    Number of degrees of freedom:     6


   Energy is    -56.173905382


 Attempting to generate delocalized internal coordinates
 Initial Hessian constructed with Jon Baker's OPTIMIZE code

  6 Hessian modes will be used to form the next step
  Hessian Eigenvalues:
     0.160000    0.160000    0.160000    0.487326    0.487452    0.487615

 Minimum search - taking simple RFO step
 Searching for Lamda that Minimizes Along All modes
 Value Taken    Lamda =  -0.07791216
 Calculated Step too Large.  Step scaled by  0.524595
 Step Taken.  Stepsize is  0.300000

                             Maximum     Tolerance    Cnvgd?
         Gradient           0.135987      0.000300      NO
         Displacement       0.299851      0.001200      NO
         Energy change     *********      0.000001      NO


 New Cartesian Coordinates Obtained by Inverse Iteration

  ***ERROR*** Exceeded allowed number of iterative cycles in GetCART
**WARNING** Problems with Internal Coordinates
  Switching to Cartesian Coordinates

 Translations and Rotations Projected Out of Hessian

  6 Hessian modes will be used to form the next step
  Hessian Eigenvalues:
     1.000000    1.000000    1.000000    1.000000    1.000000    1.000000

 Minimum search - taking simple RFO step
 Searching for Lamda that Minimizes Along All modes
 Value Taken    Lamda =  -0.00010732
 Step Taken.  Stepsize is  0.010359

                             Maximum     Tolerance    Cnvgd?
         Gradient           0.005915      0.000300      NO
         Displacement       0.005915      0.001200      NO
         Energy change     *********      0.000001      NO

 ----------------------------------------------------------------
             Standard Nuclear Orientation (Angstroms)
    I     Atom           X                Y                Z
 ----------------------------------------------------------------
    1      N       0.2597164017     0.0039772341     0.0232268377
    2      H       1.1174489470    -0.4708260730     0.1670476669
    3      H      -0.5840362418    -0.5097939812    -0.0563701249
    4      H       0.2480792419     0.9917675189    -0.0546755127
 ----------------------------------------------------------------
 Nuclear Repulsion Energy =          12.13908905 hartrees
 There are        5 alpha and        5 beta electrons






 Eigenvalues after right structure
 -0.10792520 -0.00000000 -0.00000000 -0.00000000 0.00000000 0.00000000 0.00000000 0.19431869 0.19447117 0.48748194 1.36365510 1.36493643
 Total job time:  18.23s(wall), 11.79s(cpu) 
 Thu Jul 22 19:47:01 2021

        *************************************************************
        *                                                           *
        *  Thank you very much for using Q-Chem.  Have a nice day.  *
        *                                                           *
        *************************************************************


