
Running Job 1 of 1 fsm.in
qchem fsm.in_28478.0 /scratch/ericb/fsm/ 0
/sw/qchem/release/5.4.0/exe/qcprog.exe_s fsm.in_28478.0 /scratch/ericb/fsm/
                  Welcome to Q-Chem
     A Quantum Leap Into The Future Of Chemistry


 Q-Chem 5.4, Q-Chem, Inc., Pleasanton, CA (2021)

 License issued to: Q-Chem Development Team

 E. Epifanovsky,  A. T. B. Gilbert,  Xintian Feng,  Joonho Lee,  Yuezhi Mao,  
 N. Mardirossian,  P. Pokhilko,  A. White,  M. Wormit,  M. P. Coons,  
 A. L. Dempwolff,  Zhengting Gan,  D. Hait,  P. R. Horn,  L. D. Jacobson,  
 I. Kaliman,  J. Kussmann,  A. W. Lange,  Ka Un Lao,  D. S. Levine,  Jie Liu,  
 S. C. McKenzie,  A. F. Morrison,  K. Nanda,  F. Plasser,  D. R. Rehn,  
 M. L. Vidal,  Zhi-Qiang You,  Ying Zhu,  B. Alam,  B. Albrecht,  
 A. Aldossary,  E. Alguire,  J. H. Andersen,  D. Barton,  K. Begam,  A. Behn,  
 Y. A. Bernard,  E. J. Berquist,  H. Burton,  A. Carreras,  K. Carter-Fenk,  
 R. Chakraborty,  A. D. Chien,  K. D. Closser,  V. Cofer-Shabica,  
 S. Dasgupta,  Jia Deng,  M. de Wergifosse,  M. Diedenhofen,  Hainam Do,  
 S. Ehlert,  Po-Tung Fang,  S. Fatehi,  Qingguo Feng,  J. Gayvert,  
 Qinghui Ge,  G. Gidofalvi,  M. Goldey,  J. Gomes,  C. Gonzalez-Espinoza,  
 S. Gulania,  A. Gunina,  M. W. D. Hanson-Heine,  P. H. P. Harbach,  
 A. W. Hauser,  M. F. Herbst,  M. Hernandez Vera,  M. Hodecker,  
 Z. C. Holden,  S. Houck,  Xunkun Huang,  Kerwin Hui,  B. C. Huynh,  
 M. Ivanov,  Hyunjun Ji,  Hanjie Jiang,  B. Kaduk,  S. Kaehler,  
 K. Khistyaev,  Jaehoon Kim,  P. Klunzinger,  Z. Koczor-Benda,  
 Joong Hoon Koh,  D. Kosenkov,  L. Koulias,  T. Kowalczyk,  C. M. Krauter,  
 K. Kue,  A. Kunitsa,  T. Kus,  A. Landau,  K. V. Lawler,  D. Lefrancois,  
 S. Lehtola,  Rain Li,  Yi-Pei Li,  Jiashu Liang,  M. Liebenthal,  
 Hung-Hsuan Lin,  You-Sheng Lin,  Fenglai Liu,  Kuan-Yu Liu,  
 M. Loipersberger,  A. Luenser,  A. Manjanath,  P. Manohar,  E. Mansoor,  
 S. F. Manzer,  Shan-Ping Mao,  A. V. Marenich,  T. Markovich,  S. Mason,  
 S. A. Maurer,  P. F. McLaughlin,  M. F. S. J. Menger,  J.-M. Mewes,  
 S. A. Mewes,  P. Morgante,  J. W. Mullinax,  T. S. Nguyen-Beck,  
 K. J. Oosterbaan,  G. Paran,  Alexander C. Paul,  Suranjan K. Paul,  
 F. Pavosevic,  Zheng Pei,  S. Prager,  E. I. Proynov,  E. Ramos,  B. Rana,  
 A. E. Rask,  A. Rettig,  R. M. Richard,  F. Rob,  E. Rossomme,  T. Scheele,  
 M. Scheurer,  M. Schneider,  N. Sergueev,  S. M. Sharada,  W. Skomorowski,  
 D. W. Small,  C. J. Stein,  Yu-Chuan Su,  E. J. Sundstrom,  Zhen Tao,  
 J. Thirman,  T. Tsuchimochi,  N. M. Tubman,  S. P. Veccham,  O. Vydrov,  
 J. Wenzel,  J. Witte,  A. Yamada,  Kun Yao,  S. Yeganeh,  S. R. Yost,  
 A. Zech,  Igor Ying Zhang,  Xing Zhang,  Yu Zhang,  D. Zuev,  
 A. Aspuru-Guzik,  A. T. Bell,  N. A. Besley,  K. B. Bravaya,  B. R. Brooks,  
 D. Casanova,  Jeng-Da Chai,  S. Coriani,  C. J. Cramer,  
 A. E. DePrince, III,  R. A. DiStasio Jr.,  A. Dreuw,  B. D. Dunietz,  
 T. R. Furlani,  W. A. Goddard III,  S. Grimme,  S. Hammes-Schiffer,  
 T. Head-Gordon,  W. J. Hehre,  Chao-Ping Hsu,  T.-C. Jagau,  Yousung Jung,  
 A. Klamt,  Jing Kong,  D. S. Lambrecht,  WanZhen Liang,  N. J. Mayhall,  
 C. W. McCurdy,  J. B. Neaton,  C. Ochsenfeld,  J. A. Parkhill,  R. Peverati,  
 V. A. Rassolov,  Yihan Shao,  L. V. Slipchenko,  T. Stauch,  R. P. Steele,  
 J. E. Subotnik,  A. J. W. Thom,  A. Tkatchenko,  D. G. Truhlar,  
 T. Van Voorhis,  T. A. Wesolowski,  K. B. Whaley,  H. L. Woodcock III,  
 P. M. Zimmerman,  S. Faraji,  P. M. W. Gill,  M. Head-Gordon,  
 J. M. Herbert,  A. I. Krylov

 Contributors to earlier versions of Q-Chem not listed above: 
 R. D. Adamson,  B. Austin,  R. Baer,  J. Baker,  G. J. O. Beran,  
 K. Brandhorst,  S. T. Brown,  E. F. C. Byrd,  A. K. Chakraborty,  
 G. K. L. Chan,  Chun-Min Chang,  Yunqing Chen,  C.-L. Cheng,  
 Siu Hung Chien,  D. M. Chipman,  D. L. Crittenden,  H. Dachsel,  
 R. J. Doerksen,  A. D. Dutoi,  R. G. Edgar,  J. Fosso-Tande,  
 L. Fusti-Molnar,  D. Ghosh,  A. Ghysels,  A. Golubeva-Zadorozhnaya,  
 J. Gonthier,  M. S. Gordon,  S. R. Gwaltney,  G. Hawkins,  J. E. Herr,  
 A. Heyden,  S. Hirata,  E. G. Hohenstein,  G. Kedziora,  F. J. Keil,  
 C. Kelley,  Jihan Kim,  R. A. King,  R. Z. Khaliullin,  P. P. Korambath,  
 W. Kurlancheek,  A. Laurent,  A. M. Lee,  M. S. Lee,  S. V. Levchenko,  
 Ching Yeh Lin,  D. Liotard,  E. Livshits,  R. C. Lochan,  I. Lotan,  
 L. A. Martinez-Martinez,  P. E. Maslen,  N. Nair,  D. P. O'Neill,  
 D. Neuhauser,  E. Neuscamman,  C. M. Oana,  R. Olivares-Amaya,  R. Olson,  
 T. M. Perrine,  B. Peters,  P. A. Pieniazek,  A. Prociuk,  Y. M. Rhee,  
 J. Ritchie,  M. A. Rohrdanz,  E. Rosta,  N. J. Russ,  H. F. Schaefer III,  
 M. W. Schmidt,  N. E. Schultz,  S. Sharma,  N. Shenvi,  C. D. Sherrill,  
 A. C. Simmonett,  A. Sodt,  T. Stein,  D. Stuck,  K. S. Thanthiriwatte,  
 V. Vanovschi,  L. Vogt,  Tao Wang,  A. Warshel,  M. A. Watson,  
 C. F. Williams,  Q. Wu,  X. Xu,  Jun Yang,  W. Zhang,  Yan Zhao

 Please cite Q-Chem as follows:
 Y. Shao et al., Mol. Phys. 113, 184-215 (2015)
 DOI: 10.1080/00268976.2014.952696

 Q-Chem 5.4.0 for Intel X86 EM64T Linux

 Parts of Q-Chem use Armadillo 9.800.1 (Horizon Scraper).
 http://arma.sourceforge.net/

 Q-Chem begins on Thu Jul 22 14:48:30 2021  

 Host: 
0

     Scratch files written to /scratch/ericb/fsm//
 May1621 |scratch|qcdevops|jenkins|workspace|build_RNUM 6466   
 Processing $rem in /sw/qchem/release/5.4.0/config/preferences:
 Processing $rem in /dftman/home/ericb/.qchemrc:
 Now reading second FSM geometry

 Checking the input file for inconsistencies... 	...done.

--------------------------------------------------------------
User input:
--------------------------------------------------------------
$molecule
0 1
C      2.7240725446   -0.4545996598   -0.1402942876
C      1.7200425977    0.6854451324   -0.1808016141
C      0.4069365660    0.6162631922   -0.0857643483
C     -0.4066969470   -0.6163224339    0.0860356860
C     -1.7200380028   -0.6855789094    0.1810954689
C     -2.7241642982    0.4543961968    0.1408007273
H      3.4219287035   -0.3104198345    0.6820726189
H      3.3046895530   -0.4756569932   -1.0603643944
H      2.2481955465   -1.4199269224   -0.0167118522
H      2.1720984296    1.6638850130   -0.3042097249
H     -0.1487352588    1.5432074425   -0.1361672007
H      0.1490816410   -1.5432060546    0.1363935284
H     -2.1721312464   -1.6640184598    0.3043537430
H     -3.3048364866    0.4751998063    1.0608409523
H     -3.4219610290    0.3103451163   -0.6816381831
H     -2.2483645753    1.4197932475    0.0174791986
****
C     -1.9114264300   -0.8715469047   -0.0366485340
C     -0.6016127469   -0.2138436104   -0.5083727320
C     -0.5064773120    1.3098075822   -0.4180300718
C      0.5061615625    1.3098952038    0.4176594439
C      0.6014663201   -0.2137785552    0.5081767074
C      1.9114373323   -0.8713843429    0.0367353388
H     -1.7911160197   -1.9487902102    0.0377024574
H     -2.7140226817   -0.6674441561   -0.7400218001
H     -2.2064007544   -0.4916340469    0.9369186763
H     -0.3238300812   -0.6117149184   -1.4855048593
H     -1.0915688335    2.0854271920   -0.8936487442
H      1.0921293712    2.0844913792    0.8938749964
H      0.3235824606   -0.6115782756    1.4853112623
H      1.7912455687   -1.9486468340   -0.0375216476
H      2.7139077102   -0.6671275667    0.7402083043
H      2.2065174469   -0.4915425225   -0.9368268341
$end

$rem
method = hf
basis = sto-3g
jobtype = fsm
fsm_nnode = 4
fsm_ngrad = 3
fsm_mode = 2
fsm_opt_mode = 1
symmetry = false
sym_ignore = true
$end
--------------------------------------------------------------
 ----------------------------------------------------------------
             Standard Nuclear Orientation (Angstroms)
    I     Atom           X                Y                Z
 ----------------------------------------------------------------
    1      C       2.7240725446    -0.4545996598    -0.1402942876
    2      C       1.7200425977     0.6854451324    -0.1808016141
    3      C       0.4069365660     0.6162631922    -0.0857643483
    4      C      -0.4066969470    -0.6163224339     0.0860356860
    5      C      -1.7200380028    -0.6855789094     0.1810954689
    6      C      -2.7241642982     0.4543961968     0.1408007273
    7      H       3.4219287035    -0.3104198345     0.6820726189
    8      H       3.3046895530    -0.4756569932    -1.0603643944
    9      H       2.2481955465    -1.4199269224    -0.0167118522
   10      H       2.1720984296     1.6638850130    -0.3042097249
   11      H      -0.1487352588     1.5432074425    -0.1361672007
   12      H       0.1490816410    -1.5432060546     0.1363935284
   13      H      -2.1721312464    -1.6640184598     0.3043537430
   14      H      -3.3048364866     0.4751998063     1.0608409523
   15      H      -3.4219610290     0.3103451163    -0.6816381831
   16      H      -2.2483645753     1.4197932475     0.0174791986
 ----------------------------------------------------------------
 Nuclear Repulsion Energy =         213.29885198 hartrees
 There are       23 alpha and       23 beta electrons
 Requested basis set is STO-3G
 There are 22 shells and 40 basis functions

 Total QAlloc Memory Limit   8000 MB
 Mega-Array Size       188 MB
 MEM_STATIC part       192 MB
 beginning FSman 

*******************************************
*******************************************
******** Starting FSM Calculation *********
*******************************************
*******************************************
-FSM parameters:
 Maximum displacement of each coordinate during optimization (Angstrom)      0.05
 Maximum optimization steps for each new node                                3
 The scaling factor for optimization (hartrees/Angstrom^2)                   1.75
 The number of LST interpolations used for reparameterization                100
-Aligning product structure to maximum coincidence with the reactant structure
 Total R --> P Distance 6.544047
 New node interpolation distace (Angstroms): 1.64
-Performing force calculation on reactant structure in state:0
 ----------------------------------------------------------------
             Standard Nuclear Orientation (Angstroms)
    I     Atom           X                Y                Z
 ----------------------------------------------------------------
    1      C       2.7240725446    -0.4545996598    -0.1402942876
    2      C       1.7200425977     0.6854451324    -0.1808016141
    3      C       0.4069365660     0.6162631922    -0.0857643483
    4      C      -0.4066969470    -0.6163224339     0.0860356860
    5      C      -1.7200380028    -0.6855789094     0.1810954689
    6      C      -2.7241642982     0.4543961968     0.1408007273
    7      H       3.4219287035    -0.3104198345     0.6820726189
    8      H       3.3046895530    -0.4756569932    -1.0603643944
    9      H       2.2481955465    -1.4199269224    -0.0167118522
   10      H       2.1720984296     1.6638850130    -0.3042097249
   11      H      -0.1487352588     1.5432074425    -0.1361672007
   12      H       0.1490816410    -1.5432060546     0.1363935284
   13      H      -2.1721312464    -1.6640184598     0.3043537430
   14      H      -3.3048364866     0.4751998063     1.0608409523
   15      H      -3.4219610290     0.3103451163    -0.6816381831
   16      H      -2.2483645753     1.4197932475     0.0174791986
 ----------------------------------------------------------------
 Nuclear Repulsion Energy =         213.29885198 hartrees
 There are       23 alpha and       23 beta electrons
 Requested basis set is STO-3G
 There are 22 shells and 40 basis functions
 A cutoff of  1.0D-11 yielded    241 shell pairs
 There are       838 function pairs
 Smallest overlap matrix eigenvalue = 1.79E-01

 Scale SEOQF with 1.000000e-01/1.000000e-01/1.000000e+00

 Standard Electronic Orientation quadrupole field applied
 Nucleus-field energy     =     0.0000000044 hartrees
 Guess from superposition of atomic densities
 Warning:  Energy on first SCF cycle will be non-variational
 SAD guess density has 46.000000 electrons

 -----------------------------------------------------------------------
  General SCF calculation program by
  Eric Jon Sundstrom, Paul Horn, Yuezhi Mao, Dmitri Zuev, Alec White,
  David Stuck, Shaama M.S., Shane Yost, Joonho Lee, David Small,
  Daniel Levine, Susi Lehtola, Hugh Burton, Evgeny Epifanovsky,
  Bang C. Huynh
 -----------------------------------------------------------------------
 Hartree-Fock
 A restricted SCF calculation will be
 performed using DIIS
 SCF converges when DIIS error is below 1.0e-08
 ---------------------------------------
  Cycle       Energy         DIIS error
 ---------------------------------------
    1    -229.5077622411      1.72e-01  
    2    -230.1475403495      1.03e-02  
    3    -230.1848606874      2.69e-03  
    4    -230.1874799115      4.73e-04  
    5    -230.1875424390      1.11e-04  
    6    -230.1875460366      2.39e-05  
    7    -230.1875464765      3.40e-06  
    8    -230.1875464834      7.46e-07  
    9    -230.1875464837      2.10e-07  
   10    -230.1875464837      2.93e-08  
   11    -230.1875464839      3.06e-09  Convergence criterion met
 ---------------------------------------
 SCF time:   CPU 0.35s  wall 1.00s 
 SCF   energy in the final basis set =     -230.1875464839
 Total energy in the final basis set =     -230.1875464839
 
 --------------------------------------------------------------
 
                    Orbital Energies (a.u.)
 --------------------------------------------------------------
 
 Alpha MOs
 -- Occupied --
-11.0419 -11.0419 -11.0218 -11.0217 -11.0176 -11.0174  -1.0435  -0.9945
 -0.9110  -0.8701  -0.7363  -0.6591  -0.6212  -0.5607  -0.5383  -0.5372
 -0.5348  -0.4859  -0.4741  -0.4681  -0.4037  -0.3767  -0.2542
 -- Virtual --
  0.2601   0.4231   0.5703   0.6459   0.6623   0.6675   0.6858   0.7234
  0.7237   0.7276   0.7285   0.7663   0.7749   0.9269   0.9336   1.0602
  1.1316
 --------------------------------------------------------------
 
          Ground-State Mulliken Net Atomic Charges

     Atom                 Charge (a.u.)
  ----------------------------------------
      1 C                    -0.187177
      2 C                    -0.050192
      3 C                    -0.072721
      4 C                    -0.072698
      5 C                    -0.050174
      6 C                    -0.187185
      7 H                     0.065861
      8 H                     0.065860
      9 H                     0.065747
     10 H                     0.055016
     11 H                     0.057596
     12 H                     0.057589
     13 H                     0.055007
     14 H                     0.065862
     15 H                     0.065863
     16 H                     0.065747
  ----------------------------------------
  Sum of atomic charges =     0.000000

 -----------------------------------------------------------------
                    Cartesian Multipole Moments
 -----------------------------------------------------------------
    Charge (ESU x 10^10)
                 0.0000
    Dipole Moment (Debye)
         X      -0.0001      Y       0.0000      Z       0.0000
       Tot       0.0001
    Quadrupole Moments (Debye-Ang)
        XX     -33.7410     XY      -0.0186     YY     -35.1509
        XZ      -0.2395     YZ      -0.2043     ZZ     -37.2828
    Octopole Moments (Debye-Ang^2)
       XXX      -0.0050    XXY       0.0017    XYY      -0.0003
       YYY       0.0085    XXZ      -0.0059    XYZ      -0.0000
       YYZ      -0.0067    XZZ      -0.0008    YZZ       0.0025
       ZZZ      -0.0206
    Hexadecapole Moments (Debye-Ang^3)
      XXXX    -908.8716   XXXY      11.7222   XXYY    -181.1112
      XYYY       8.9450   YYYY    -150.5746   XXXZ      28.4623
      XXYZ       1.6422   XYYZ       9.1249   YYYZ       3.5334
      XXZZ    -157.5001   XYZZ       0.9422   YYZZ     -36.2372
      XZZZ      28.4893   YZZZ       5.7937   ZZZZ     -48.6419
 -----------------------------------------------------------------
 Calculating analytic gradient of the SCF energy
 Gradient of SCF Energy
            1           2           3           4           5           6
    1  -0.0000239  -0.0004231   0.0003573   0.0000285   0.0000602   0.0000020
    2   0.0000467   0.0000024  -0.0000098   0.0000206  -0.0000284  -0.0000540
    3  -0.0000056   0.0000481  -0.0000454   0.0000130  -0.0000240   0.0000134
            7           8           9          10          11          12
    1   0.0000093   0.0000145   0.0000013   0.0000571   0.0000553  -0.0000294
    2  -0.0000026  -0.0000064   0.0000336  -0.0000404  -0.0000336   0.0000441
    3   0.0000127  -0.0000161  -0.0000012  -0.0000092   0.0000089  -0.0000049
           13          14          15          16
    1  -0.0000801  -0.0000156  -0.0000080  -0.0000053
    2   0.0000543   0.0000102   0.0000016  -0.0000382
    3   0.0000036   0.0000144  -0.0000114   0.0000036
 Max gradient component =       4.231E-04
 RMS gradient           =       8.528E-05
 Gradient time:  CPU 0.12 s  wall 0.12 s
-Performing force calculation on product structure in state0
 ----------------------------------------------------------------
             Standard Nuclear Orientation (Angstroms)
    I     Atom           X                Y                Z
 ----------------------------------------------------------------
    1      C       1.9173228510    -0.3182759276     0.6010533447
    2      C       0.6974592340     0.3652304809    -0.0435092762
    3      C       0.4834054003     0.1551473650    -1.5430997351
    4      C      -0.6820417569    -0.4343608706    -1.4088334765
    5      C      -0.6922247674    -0.3581520318     0.1185651666
    6      C      -1.8242185626     0.4487428404     0.7805599564
    7      H       1.8563252131    -0.2628451995     1.6844104080
    8      H       2.8361211012     0.1696040286     0.2874683474
    9      H       1.9714213086    -1.3641215691     0.3139000833
   10      H       0.6620802736     1.4124561639     0.2603306149
   11      H       1.1032977688     0.4158272519    -2.3903956913
   12      H      -1.4067304594    -0.8411362376    -2.1012920280
   13      H      -0.6034632319    -1.3306154941     0.6050753921
   14      H      -1.6190737760     0.5957533032     1.8373277527
   15      H      -2.7702624338    -0.0776440962     0.6885189981
   16      H      -1.9293004248     1.4231958719     0.3130404610
 ----------------------------------------------------------------
 Nuclear Repulsion Energy =         231.67725345 hartrees
 There are       23 alpha and       23 beta electrons
 Applying Cartesian multipole field
    Component          Value
    ---------          -----
     (2,0,0)        1.00000E-11
     (0,2,0)        2.00000E-11
     (0,0,2)       -3.00000E-10
 Nucleus-field energy     =    -0.0000000492 hartrees
 Requested basis set is STO-3G
 There are 22 shells and 40 basis functions
 A cutoff of  1.0D-11 yielded    244 shell pairs
 There are       847 function pairs
 Smallest overlap matrix eigenvalue = 1.64E-01
 Guess from superposition of atomic densities
 Warning:  Energy on first SCF cycle will be non-variational
 SAD guess density has 46.000000 electrons

 -----------------------------------------------------------------------
  General SCF calculation program by
  Eric Jon Sundstrom, Paul Horn, Yuezhi Mao, Dmitri Zuev, Alec White,
  David Stuck, Shaama M.S., Shane Yost, Joonho Lee, David Small,
  Daniel Levine, Susi Lehtola, Hugh Burton, Evgeny Epifanovsky,
  Bang C. Huynh
 -----------------------------------------------------------------------
 Hartree-Fock
 A restricted SCF calculation will be
 performed using DIIS
 SCF converges when DIIS error is below 1.0e-08
 ---------------------------------------
  Cycle       Energy         DIIS error
 ---------------------------------------
    1    -229.5048910743      1.70e-01  
    2    -230.1652554962      1.04e-02  
    3    -230.2028549212      2.74e-03  
    4    -230.2054424181      4.56e-04  
    5    -230.2055039861      2.76e-05  
    6    -230.2055042728      5.90e-06  
    7    -230.2055042875      1.08e-06  
    8    -230.2055042878      3.10e-07  
    9    -230.2055042878      1.11e-07  
   10    -230.2055042877      3.93e-08  
   11    -230.2055042877      1.05e-08  
   12    -230.2055042875      2.10e-09  Convergence criterion met
 ---------------------------------------
 SCF time:   CPU 0.41s  wall 0.00s 
 SCF   energy in the final basis set =     -230.2055042875
 Total energy in the final basis set =     -230.2055042875
 
 --------------------------------------------------------------
 
                    Orbital Energies (a.u.)
 --------------------------------------------------------------
 
 Alpha MOs
 -- Occupied --
-11.0426 -11.0422 -11.0333 -11.0333 -11.0085 -11.0074  -1.1052  -0.9468
 -0.9331  -0.7949  -0.7805  -0.6604  -0.6214  -0.5666  -0.5563  -0.5319
 -0.5228  -0.4909  -0.4507  -0.4406  -0.3850  -0.3792  -0.2999
 -- Virtual --
  0.3292   0.5593   0.5691   0.6220   0.6496   0.6833   0.6932   0.7016
  0.7351   0.7485   0.7509   0.7651   0.7742   0.7991   0.8362   0.8418
  1.1974
 --------------------------------------------------------------
 
          Ground-State Mulliken Net Atomic Charges

     Atom                 Charge (a.u.)
  ----------------------------------------
      1 C                    -0.182265
      2 C                    -0.026708
      3 C                    -0.073126
      4 C                    -0.073071
      5 C                    -0.026756
      6 C                    -0.182272
      7 H                     0.058707
      8 H                     0.059072
      9 H                     0.058333
     10 H                     0.049878
     11 H                     0.056129
     12 H                     0.056125
     13 H                     0.049855
     14 H                     0.058701
     15 H                     0.059070
     16 H                     0.058327
  ----------------------------------------
  Sum of atomic charges =     0.000000

 -----------------------------------------------------------------
                    Cartesian Multipole Moments
 -----------------------------------------------------------------
    Charge (ESU x 10^10)
                 0.0000
    Dipole Moment (Debye)
         X       0.0071      Y       0.0101      Z       0.1080
       Tot       0.1087
    Quadrupole Moments (Debye-Ang)
        XX     -36.0945     XY       0.5585     YY     -36.3826
        XZ      -0.0477     YZ      -0.0040     ZZ     -36.0270
    Octopole Moments (Debye-Ang^2)
       XXX       0.8026    XXY       0.2732    XYY       0.2711
       YYY       1.7889    XXZ       4.0367    XYZ      -0.7740
       YYZ       6.2831    XZZ       0.7633    YZZ       0.5423
       ZZZ      17.1208
    Hexadecapole Moments (Debye-Ang^3)
      XXXX    -430.6230   XXXY      20.1860   XXYY     -87.6697
      XYYY      13.4395   YYYY     -90.6726   XXXZ       4.0730
      XXYZ      -2.7466   XYYZ       2.0786   YYYZ      -9.6029
      XXZZ    -113.8469   XYZZ       8.0644   YYZZ     -60.6584
      XZZZ       3.5451   YZZZ      -8.5008   ZZZZ    -254.0046
 -----------------------------------------------------------------
 Calculating analytic gradient of the SCF energy
 Gradient of SCF Energy
            1           2           3           4           5           6
    1  -0.0000142  -0.0000245   0.0000765   0.0001223  -0.0000264  -0.0000140
    2  -0.0000022  -0.0000208   0.0000349   0.0000568   0.0000013  -0.0000079
    3   0.0000029  -0.0000160   0.0001183  -0.0001771   0.0000326   0.0000010
            7           8           9          10          11          12
    1  -0.0000009  -0.0000145  -0.0000007   0.0000071  -0.0000571  -0.0000686
    2  -0.0000008   0.0000038   0.0000022   0.0000027  -0.0000301  -0.0000271
    3   0.0000008  -0.0000037  -0.0000013   0.0000017  -0.0000434   0.0000823
           13          14          15          16
    1  -0.0000033   0.0000053   0.0000101   0.0000029
    2  -0.0000056  -0.0000016  -0.0000012  -0.0000045
    3   0.0000066  -0.0000014  -0.0000016  -0.0000018
 Max gradient component =       1.771E-04
 RMS gradient           =       4.400E-05
 Gradient time:  CPU 0.12 s  wall 0.13 s

STARTING FREEZING STRING ITERATION # 1
 The distance between the innermost nodes (Angstroms): 6.544
-Adding two new nodes
 The distance between the previous and current R_nodes (Angstroms): 1.6198
 The distance between the previous and current P_nodes (Angstroms): 1.6397
-Optimizing new reactant side node
-Starting node optimization
-performing optimization step: 1
 ----------------------------------------------------------------
             Standard Nuclear Orientation (Angstroms)
    I     Atom           X                Y                Z
 ----------------------------------------------------------------
    1      C       2.6490947950    -0.4388181902     0.0482372784
    2      C       1.5959669512     0.6519836012    -0.0004813917
    3      C       0.3654748662     0.5492190920    -0.5373215597
    4      C      -0.4279495370    -0.6364856030    -0.3714681546
    5      C      -1.5752506295    -0.6218272597     0.3333599927
    6      C      -2.6262974755     0.4719448359     0.3171483092
    7      H       3.2187609900    -0.3166952277     0.9664336574
    8      H       3.3386796890    -0.3609137156    -0.7884698256
    9      H       2.2313966535    -1.4374831502     0.0593941543
   10      H       2.0256783312     1.6503454510    -0.0230881448
   11      H      -0.0694406871     1.4426423032    -0.9600165564
   12      H      -0.0420212801    -1.5986713339    -0.6736179330
   13      H      -1.9915054031    -1.6012324043     0.5555848334
   14      H      -3.0673539520     0.5308376768     1.3093892915
   15      H      -3.4200659906     0.2478028978    -0.3909281653
   16      H      -2.2233722193     1.4497114611     0.0857325694
 ----------------------------------------------------------------
 Nuclear Repulsion Energy =         215.01918454 hartrees
 There are       23 alpha and       23 beta electrons
 Applying Cartesian multipole field
    Component          Value
    ---------          -----
     (2,0,0)        1.00000E-11
     (0,2,0)        2.00000E-11
     (0,0,2)       -3.00000E-10
 Nucleus-field energy     =    -0.0000000014 hartrees
 Requested basis set is STO-3G
 There are 22 shells and 40 basis functions
 A cutoff of  1.0D-11 yielded    243 shell pairs
 There are       846 function pairs
 Smallest overlap matrix eigenvalue = 1.82E-01
 Guess from superposition of atomic densities
 Warning:  Energy on first SCF cycle will be non-variational
 SAD guess density has 46.000000 electrons

 -----------------------------------------------------------------------
  General SCF calculation program by
  Eric Jon Sundstrom, Paul Horn, Yuezhi Mao, Dmitri Zuev, Alec White,
  David Stuck, Shaama M.S., Shane Yost, Joonho Lee, David Small,
  Daniel Levine, Susi Lehtola, Hugh Burton, Evgeny Epifanovsky,
  Bang C. Huynh
 -----------------------------------------------------------------------
 Hartree-Fock
 A restricted SCF calculation will be
 performed using DIIS
 SCF converges when DIIS error is below 1.0e-08
 ---------------------------------------
  Cycle       Energy         DIIS error
 ---------------------------------------
    1    -229.4880874675      1.71e-01  
    2    -230.1002809100      1.02e-02  
    3    -230.1369381920      2.68e-03  
    4    -230.1395173078      4.51e-04  
    5    -230.1395763168      1.20e-04  
    6    -230.1395807154      3.24e-05  
    7    -230.1395815977      7.18e-06  
    8    -230.1395816359      1.74e-06  
    9    -230.1395816381      4.68e-07  
   10    -230.1395816381      9.70e-08  
   11    -230.1395816381      2.23e-08  
   12    -230.1395816381      9.02e-09  Convergence criterion met
 ---------------------------------------
 SCF time:   CPU 0.41s  wall 1.00s 
 SCF   energy in the final basis set =     -230.1395816381
 Total energy in the final basis set =     -230.1395816381
 
 --------------------------------------------------------------
 
                    Orbital Energies (a.u.)
 --------------------------------------------------------------
 
 Alpha MOs
 -- Occupied --
-11.0426 -11.0426 -11.0184 -11.0183 -11.0151 -11.0151  -1.0473  -0.9894
 -0.9149  -0.8614  -0.7365  -0.6579  -0.6088  -0.5750  -0.5392  -0.5366
 -0.5338  -0.4839  -0.4806  -0.4658  -0.4216  -0.3197  -0.2515
 -- Virtual --
  0.2595   0.3329   0.6174   0.6472   0.6775   0.6874   0.7068   0.7196
  0.7249   0.7350   0.7457   0.7657   0.7741   0.9050   0.9529   1.0279
  1.0532
 --------------------------------------------------------------
 
          Ground-State Mulliken Net Atomic Charges

     Atom                 Charge (a.u.)
  ----------------------------------------
      1 C                    -0.186036
      2 C                    -0.051483
      3 C                    -0.069455
      4 C                    -0.069474
      5 C                    -0.051454
      6 C                    -0.186053
      7 H                     0.062654
      8 H                     0.069988
      9 H                     0.065692
     10 H                     0.047509
     11 H                     0.061159
     12 H                     0.061151
     13 H                     0.047504
     14 H                     0.062648
     15 H                     0.069976
     16 H                     0.065676
  ----------------------------------------
  Sum of atomic charges =     0.000000

 -----------------------------------------------------------------
                    Cartesian Multipole Moments
 -----------------------------------------------------------------
    Charge (ESU x 10^10)
                 0.0000
    Dipole Moment (Debye)
         X      -0.0124      Y      -0.0176      Z      -0.1859
       Tot       0.1872
    Quadrupole Moments (Debye-Ang)
        XX     -34.2882     XY      -0.1458     YY     -35.2560
        XZ      -0.1694     YZ      -0.1558     ZZ     -36.9729
    Octopole Moments (Debye-Ang^2)
       XXX       0.1727    XXY       0.1329    XYY       0.1089
       YYY       0.0086    XXZ       0.4559    XYZ       0.5053
       YYZ      -0.2041    XZZ       0.0990    YZZ       0.3158
       ZZZ       3.3189
    Hexadecapole Moments (Debye-Ang^3)
      XXXX    -840.6518   XXXY      13.6035   XXYY    -169.5622
      XYYY      11.4202   YYYY    -144.4765   XXXZ      24.9517
      XXYZ       1.2067   XYYZ       8.2492   YYYZ       2.3686
      XXZZ    -150.9159   XYZZ       2.2145   YYZZ     -37.6606
      XZZZ      25.1947   YZZZ       3.7275   ZZZZ     -71.2473
 -----------------------------------------------------------------
 Calculating analytic gradient of the SCF energy
 Gradient of SCF Energy
            1           2           3           4           5           6
    1   0.0034740   0.0169615  -0.0608525   0.0583222  -0.0082472  -0.0083621
    2   0.0055174  -0.0126893  -0.0359246   0.0319854   0.0251579  -0.0124031
    3  -0.0374860   0.0672616  -0.0140908  -0.0285372   0.0653058  -0.0349232
            7           8           9          10          11          12
    1  -0.0064988   0.0026585   0.0027560  -0.0026154   0.0108170  -0.0125437
    2   0.0043432  -0.0045312   0.0011780   0.0010546  -0.0056792   0.0032809
    3   0.0017427   0.0021349   0.0020995  -0.0020717  -0.0129514  -0.0122391
           13          14          15          16
    1   0.0022877   0.0066802  -0.0024190  -0.0024184
    2  -0.0014308  -0.0040066   0.0048901  -0.0007429
    3  -0.0021013   0.0016364   0.0015996   0.0026204
 Max gradient component =       6.726E-02
 RMS gradient           =       2.242E-02
 Gradient time:  CPU 0.12 s  wall 0.13 s
-taking node optimization step
Magnitude of Displacement (Angstroms): 0.1386922
-performing optimization step: 2
 ----------------------------------------------------------------
             Standard Nuclear Orientation (Angstroms)
    I     Atom           X                Y                Z
 ----------------------------------------------------------------
    1      C       2.6426146012    -0.4444365922     0.0920085175
    2      C       1.5734065616     0.6646989394    -0.0504813917
    3      C       0.4154748662     0.5864862965    -0.5307506764
    4      C      -0.4779495370    -0.6711518101    -0.3493721867
    5      C      -1.5618019531    -0.6475866503     0.2833599927
    6      C      -2.6141163279     0.4855907141     0.3577737524
    7      H       3.2206525177    -0.3216266354     0.9693976219
    8      H       3.3351020768    -0.3536591783    -0.7856169317
    9      H       2.2268723076    -1.4389432642     0.0580832884
   10      H       2.0233723573     1.6487116803    -0.0151331747
   11      H      -0.0789297108     1.4464652908    -0.9585384488
   12      H      -0.0323386590    -1.6022674330    -0.6727125374
   13      H      -1.9881528360    -1.5982012904     0.5626082346
   14      H      -3.0688366475     0.5362418109     1.3116235924
   15      H      -3.4160370136     0.2411753192    -0.3872776284
   16      H      -2.2190942307     1.4508635390     0.0836082539
 ----------------------------------------------------------------
 Nuclear Repulsion Energy =         215.39870149 hartrees
 There are       23 alpha and       23 beta electrons
 Applying Cartesian multipole field
    Component          Value
    ---------          -----
     (2,0,0)        1.00000E-11
     (0,2,0)        2.00000E-11
     (0,0,2)       -3.00000E-10
 Nucleus-field energy     =    -0.0000000013 hartrees
 Requested basis set is STO-3G
 There are 22 shells and 40 basis functions
 A cutoff of  1.0D-11 yielded    243 shell pairs
 There are       846 function pairs
 Smallest overlap matrix eigenvalue = 1.54E-01
 Guess from superposition of atomic densities
 Warning:  Energy on first SCF cycle will be non-variational
 SAD guess density has 46.000000 electrons

 -----------------------------------------------------------------------
  General SCF calculation program by
  Eric Jon Sundstrom, Paul Horn, Yuezhi Mao, Dmitri Zuev, Alec White,
  David Stuck, Shaama M.S., Shane Yost, Joonho Lee, David Small,
  Daniel Levine, Susi Lehtola, Hugh Burton, Evgeny Epifanovsky,
  Bang C. Huynh
 -----------------------------------------------------------------------
 Hartree-Fock
 A restricted SCF calculation will be
 performed using DIIS
 SCF converges when DIIS error is below 1.0e-08
 ---------------------------------------
  Cycle       Energy         DIIS error
 ---------------------------------------
    1    -229.6356929486      1.78e-01  
    2    -230.0968523928      1.03e-02  
    3    -230.1336487764      2.66e-03  
    4    -230.1361232845      3.53e-04  
    5    -230.1361585943      4.64e-05  
    6    -230.1361594462      2.06e-05  
    7    -230.1361596013      3.55e-06  
    8    -230.1361596115      8.91e-07  
    9    -230.1361596121      1.81e-07  
   10    -230.1361596121      3.65e-08  
   11    -230.1361596120      1.19e-08  
   12    -230.1361596119      3.39e-09  Convergence criterion met
 ---------------------------------------
 SCF time:   CPU 0.39s  wall 0.00s 
 SCF   energy in the final basis set =     -230.1361596119
 Total energy in the final basis set =     -230.1361596119
 
 --------------------------------------------------------------
 
                    Orbital Energies (a.u.)
 --------------------------------------------------------------
 
 Alpha MOs
 -- Occupied --
-11.0438 -11.0436 -11.0210 -11.0207 -11.0193 -11.0191  -1.0535  -1.0017
 -0.9079  -0.8809  -0.7283  -0.6547  -0.6192  -0.5805  -0.5413  -0.5314
 -0.5291  -0.4923  -0.4919  -0.4616  -0.4074  -0.3348  -0.2894
 -- Virtual --
  0.3085   0.3542   0.5841   0.6227   0.6484   0.6600   0.6718   0.7179
  0.7189   0.7419   0.7554   0.7699   0.7780   0.9206   0.9541   1.1300
  1.1871
 --------------------------------------------------------------
 
          Ground-State Mulliken Net Atomic Charges

     Atom                 Charge (a.u.)
  ----------------------------------------
      1 C                    -0.179517
      2 C                    -0.063955
      3 C                    -0.068673
      4 C                    -0.068168
      5 C                    -0.065227
      6 C                    -0.179427
      7 H                     0.068984
      8 H                     0.061845
      9 H                     0.066001
     10 H                     0.053990
     11 H                     0.061607
     12 H                     0.061170
     13 H                     0.055042
     14 H                     0.068788
     15 H                     0.061589
     16 H                     0.065952
  ----------------------------------------
  Sum of atomic charges =     0.000000

 -----------------------------------------------------------------
                    Cartesian Multipole Moments
 -----------------------------------------------------------------
    Charge (ESU x 10^10)
                 0.0000
    Dipole Moment (Debye)
         X      -0.0014      Y      -0.0110      Z      -0.1115
       Tot       0.1120
    Quadrupole Moments (Debye-Ang)
        XX     -34.0776     XY      -0.1746     YY     -35.1299
        XZ      -0.1796     YZ      -0.1654     ZZ     -36.9339
    Octopole Moments (Debye-Ang^2)
       XXX       0.4432    XXY       0.2227    XYY       0.1465
       YYY       0.0699    XXZ       1.1234    XYZ       0.6536
       YYZ      -0.1800    XZZ      -0.0108    YZZ       0.2852
       ZZZ       3.1162
    Hexadecapole Moments (Debye-Ang^3)
      XXXX    -834.4648   XXXY      11.8303   XXYY    -169.0625
      XYYY      10.4322   YYYY    -148.8053   XXXZ      24.9109
      XXYZ       1.3457   XYYZ       8.1855   YYYZ       2.6833
      XXZZ    -149.6946   XYZZ       1.8625   YYZZ     -38.2405
      XZZZ      25.0517   YZZZ       4.0125   ZZZZ     -70.8458
 -----------------------------------------------------------------
 Calculating analytic gradient of the SCF energy
 Gradient of SCF Energy
            1           2           3           4           5           6
    1   0.0131933  -0.1290220   0.1332825  -0.1284984   0.1256761  -0.0084816
    2  -0.0111856  -0.0067516   0.0409557  -0.0304726  -0.0019286   0.0185150
    3   0.0327649  -0.0104907   0.0335552   0.0602133  -0.0288413   0.0315837
            7           8           9          10          11          12
    1  -0.0146648   0.0170530   0.0040537  -0.0048883   0.0042111  -0.0054520
    2  -0.0011655  -0.0003708   0.0048057  -0.0024756  -0.0078224   0.0044326
    3  -0.0243493  -0.0219123  -0.0037856   0.0029247  -0.0122169  -0.0133276
           13          14          15          16
    1   0.0066974   0.0112503  -0.0196631  -0.0047473
    2   0.0060117  -0.0036153  -0.0037171  -0.0052156
    3   0.0010468  -0.0258128  -0.0191379  -0.0022142
 Max gradient component =       1.333E-01
 RMS gradient           =       4.125E-02
 Gradient time:  CPU 0.12 s  wall 0.13 s
-taking optimization step
Magnitude of Displacement (Angstroms): 0.1556653
-performing optimization step: 3
 ----------------------------------------------------------------
             Standard Nuclear Orientation (Angstroms)
    I     Atom           X                Y                Z
 ----------------------------------------------------------------
    1      C       2.6200100126    -0.4377421812     0.1026638286
    2      C       1.6234065616     0.6840261712    -0.0873380408
    3      C       0.3654748662     0.5784784054    -0.5663634692
    4      C      -0.4279495370    -0.6730002928    -0.3982983435
    5      C      -1.6118019531    -0.6702952192     0.2657583507
    6      C      -2.5906076456     0.4794162114     0.3662998142
    7      H       3.2348522689    -0.3254650316     1.0019891716
    8      H       3.3126232910    -0.3443779984    -0.7555529707
    9      H       2.2169054232    -1.4457216532     0.0615175461
   10      H       2.0228138826     1.6494110164    -0.0064013212
   11      H      -0.0914584377     1.4571459635    -0.9524751517
   12      H      -0.0194266780    -1.6106864615    -0.6658883651
   13      H      -1.9880245683    -1.6006398107     0.5717730944
   14      H      -3.0785237833     0.5462903014     1.3444862115
   15      H      -3.3897999744     0.2376338283    -0.3592593618
   16      H      -2.2085433181     1.4578878008     0.0843611541
 ----------------------------------------------------------------
 Nuclear Repulsion Energy =         214.05110827 hartrees
 There are       23 alpha and       23 beta electrons
 Applying Cartesian multipole field
    Component          Value
    ---------          -----
     (2,0,0)        1.00000E-11
     (0,2,0)        2.00000E-11
     (0,0,2)       -3.00000E-10
 Nucleus-field energy     =    -0.0000000019 hartrees
 Requested basis set is STO-3G
 There are 22 shells and 40 basis functions
 A cutoff of  1.0D-11 yielded    243 shell pairs
 There are       846 function pairs
 Smallest overlap matrix eigenvalue = 1.87E-01
 Guess from superposition of atomic densities
 Warning:  Energy on first SCF cycle will be non-variational
 SAD guess density has 46.000000 electrons

 -----------------------------------------------------------------------
  General SCF calculation program by
  Eric Jon Sundstrom, Paul Horn, Yuezhi Mao, Dmitri Zuev, Alec White,
  David Stuck, Shaama M.S., Shane Yost, Joonho Lee, David Small,
  Daniel Levine, Susi Lehtola, Hugh Burton, Evgeny Epifanovsky,
  Bang C. Huynh
 -----------------------------------------------------------------------
 Hartree-Fock
 A restricted SCF calculation will be
 performed using DIIS
 SCF converges when DIIS error is below 1.0e-08
 ---------------------------------------
  Cycle       Energy         DIIS error
 ---------------------------------------
    1    -229.4259715642      1.69e-01  
    2    -230.1138563854      1.03e-02  
    3    -230.1505242738      2.68e-03  
    4    -230.1530823916      4.40e-04  
    5    -230.1531384795      1.00e-04  
    6    -230.1531418321      3.07e-05  
    7    -230.1531424656      4.99e-06  
    8    -230.1531424881      1.13e-06  
    9    -230.1531424891      3.62e-07  
   10    -230.1531424891      1.46e-07  
   11    -230.1531424890      2.60e-08  
   12    -230.1531424891      4.81e-09  Convergence criterion met
 ---------------------------------------
 SCF time:   CPU 0.40s  wall 1.00s 
 SCF   energy in the final basis set =     -230.1531424891
 Total energy in the final basis set =     -230.1531424891
 
 --------------------------------------------------------------
 
                    Orbital Energies (a.u.)
 --------------------------------------------------------------
 
 Alpha MOs
 -- Occupied --
-11.0425 -11.0424 -11.0173 -11.0172 -11.0152 -11.0148  -1.0384  -0.9889
 -0.9079  -0.8616  -0.7391  -0.6646  -0.6146  -0.5741  -0.5345  -0.5310
 -0.5265  -0.4875  -0.4742  -0.4696  -0.4263  -0.3258  -0.2478
 -- Virtual --
  0.2711   0.3456   0.6291   0.6496   0.6567   0.6615   0.6906   0.7199
  0.7226   0.7429   0.7438   0.7575   0.7808   0.9232   0.9586   1.0148
  1.0549
 --------------------------------------------------------------
 
          Ground-State Mulliken Net Atomic Charges

     Atom                 Charge (a.u.)
  ----------------------------------------
      1 C                    -0.179878
      2 C                    -0.058931
      3 C                    -0.072527
      4 C                    -0.073714
      5 C                    -0.057862
      6 C                    -0.179823
      7 H                     0.062589
      8 H                     0.062006
      9 H                     0.066377
     10 H                     0.058738
     11 H                     0.061749
     12 H                     0.062395
     13 H                     0.058108
     14 H                     0.062428
     15 H                     0.062158
     16 H                     0.066187
  ----------------------------------------
  Sum of atomic charges =     0.000000

 -----------------------------------------------------------------
                    Cartesian Multipole Moments
 -----------------------------------------------------------------
    Charge (ESU x 10^10)
                 0.0000
    Dipole Moment (Debye)
         X      -0.0037      Y      -0.0028      Z      -0.0328
       Tot       0.0331
    Quadrupole Moments (Debye-Ang)
        XX     -34.1429     XY      -0.0557     YY     -35.0544
        XZ      -0.1825     YZ      -0.1853     ZZ     -37.0173
    Octopole Moments (Debye-Ang^2)
       XXX       0.4720    XXY       0.3757    XYY       0.1634
       YYY       0.2843    XXZ       2.3966    XYZ       0.7133
       YYZ       0.4545    XZZ      -0.1201    YZZ       0.3314
       ZZZ       4.7704
    Hexadecapole Moments (Debye-Ang^3)
      XXXX    -836.7805   XXXY      11.0735   XXYY    -168.7013
      XYYY       8.3067   YYYY    -149.9074   XXXZ      25.4313
      XXYZ       1.2924   XYYZ       8.3013   YYYZ       2.7468
      XXZZ    -149.8039   XYZZ       1.3183   YYZZ     -39.0277
      XZZZ      25.2318   YZZZ       4.1022   ZZZZ     -73.6944
 -----------------------------------------------------------------
 Calculating analytic gradient of the SCF energy
 Gradient of SCF Energy
            1           2           3           4           5           6
    1  -0.0238783   0.0607717  -0.0584751   0.0649426  -0.0614891   0.0229726
    2  -0.0005342   0.0308542   0.0168677  -0.0265718  -0.0228385   0.0000846
    3   0.0060587   0.0314278  -0.0226290  -0.0345980   0.0507915   0.0014160
            7           8           9          10          11          12
    1   0.0078113   0.0052074   0.0059085  -0.0197921   0.0166397  -0.0196971
    2   0.0009064   0.0042810  -0.0046189  -0.0326395  -0.0167980   0.0209414
    3   0.0029876  -0.0123570  -0.0041649   0.0039045  -0.0043272  -0.0033202
           13          14          15          16
    1   0.0189442  -0.0069742  -0.0067193  -0.0061726
    2   0.0313539  -0.0003843  -0.0057520   0.0048479
    3  -0.0048731   0.0041764  -0.0101369  -0.0043562
 Max gradient component =       6.494E-02
 RMS gradient           =       2.454E-02
 Gradient time:  CPU 0.12 s  wall 0.13 s
-taking optimization step
Magnitude of Displacement (Angstroms): 0.1577987
 ----------------------------------------------------------------
             Standard Nuclear Orientation (Angstroms)
    I     Atom           X                Y                Z
 ----------------------------------------------------------------
    1      C       2.6200100126    -0.4377421812     0.1026638286
    2      C       1.6234065616     0.6840261712    -0.0873380408
    3      C       0.3654748662     0.5784784054    -0.5663634692
    4      C      -0.4279495370    -0.6730002928    -0.3982983435
    5      C      -1.6118019531    -0.6702952192     0.2657583507
    6      C      -2.5906076456     0.4794162114     0.3662998142
    7      H       3.2348522689    -0.3254650316     1.0019891716
    8      H       3.3126232910    -0.3443779984    -0.7555529707
    9      H       2.2169054232    -1.4457216532     0.0615175461
   10      H       2.0228138826     1.6494110164    -0.0064013212
   11      H      -0.0914584377     1.4571459635    -0.9524751517
   12      H      -0.0194266780    -1.6106864615    -0.6658883651
   13      H      -1.9880245683    -1.6006398107     0.5717730944
   14      H      -3.0785237833     0.5462903014     1.3444862115
   15      H      -3.3897999744     0.2376338283    -0.3592593618
   16      H      -2.2085433181     1.4578878008     0.0843611541
 ----------------------------------------------------------------
 Nuclear Repulsion Energy =         214.05110827 hartrees
 There are       23 alpha and       23 beta electrons
 Applying Cartesian multipole field
    Component          Value
    ---------          -----
     (2,0,0)        1.00000E-11
     (0,2,0)        2.00000E-11
     (0,0,2)       -3.00000E-10
 Nucleus-field energy     =    -0.0000000019 hartrees
 Requested basis set is STO-3G
 There are 22 shells and 40 basis functions
 A cutoff of  1.0D-11 yielded    243 shell pairs
 There are       846 function pairs
 Smallest overlap matrix eigenvalue = 1.87E-01
 Guess from superposition of atomic densities
 Warning:  Energy on first SCF cycle will be non-variational
 SAD guess density has 46.000000 electrons

 -----------------------------------------------------------------------
  General SCF calculation program by
  Eric Jon Sundstrom, Paul Horn, Yuezhi Mao, Dmitri Zuev, Alec White,
  David Stuck, Shaama M.S., Shane Yost, Joonho Lee, David Small,
  Daniel Levine, Susi Lehtola, Hugh Burton, Evgeny Epifanovsky,
  Bang C. Huynh
 -----------------------------------------------------------------------
 Hartree-Fock
 A restricted SCF calculation will be
 performed using DIIS
 SCF converges when DIIS error is below 1.0e-08
 ---------------------------------------
  Cycle       Energy         DIIS error
 ---------------------------------------
    1    -229.4259715642      1.69e-01  
    2    -230.1138563854      1.03e-02  
    3    -230.1505242738      2.68e-03  
    4    -230.1530823916      4.40e-04  
    5    -230.1531384795      1.00e-04  
    6    -230.1531418321      3.07e-05  
    7    -230.1531424656      4.99e-06  
    8    -230.1531424881      1.13e-06  
    9    -230.1531424891      3.62e-07  
   10    -230.1531424891      1.46e-07  
   11    -230.1531424890      2.60e-08  
   12    -230.1531424891      4.81e-09  Convergence criterion met
 ---------------------------------------
 SCF time:   CPU 0.40s  wall 0.00s 
 SCF   energy in the final basis set =     -230.1531424891
 Total energy in the final basis set =     -230.1531424891
 
 --------------------------------------------------------------
 
                    Orbital Energies (a.u.)
 --------------------------------------------------------------
 
 Alpha MOs
 -- Occupied --
-11.0425 -11.0424 -11.0173 -11.0172 -11.0152 -11.0148  -1.0384  -0.9889
 -0.9079  -0.8616  -0.7391  -0.6646  -0.6146  -0.5741  -0.5345  -0.5310
 -0.5265  -0.4875  -0.4742  -0.4696  -0.4263  -0.3258  -0.2478
 -- Virtual --
  0.2711   0.3456   0.6291   0.6496   0.6567   0.6615   0.6906   0.7199
  0.7226   0.7429   0.7438   0.7575   0.7808   0.9232   0.9586   1.0148
  1.0549
 --------------------------------------------------------------
 
          Ground-State Mulliken Net Atomic Charges

     Atom                 Charge (a.u.)
  ----------------------------------------
      1 C                    -0.179878
      2 C                    -0.058931
      3 C                    -0.072527
      4 C                    -0.073714
      5 C                    -0.057862
      6 C                    -0.179823
      7 H                     0.062589
      8 H                     0.062006
      9 H                     0.066377
     10 H                     0.058738
     11 H                     0.061749
     12 H                     0.062395
     13 H                     0.058108
     14 H                     0.062428
     15 H                     0.062158
     16 H                     0.066187
  ----------------------------------------
  Sum of atomic charges =     0.000000

 -----------------------------------------------------------------
                    Cartesian Multipole Moments
 -----------------------------------------------------------------
    Charge (ESU x 10^10)
                 0.0000
    Dipole Moment (Debye)
         X      -0.0037      Y      -0.0028      Z      -0.0328
       Tot       0.0331
    Quadrupole Moments (Debye-Ang)
        XX     -34.1429     XY      -0.0557     YY     -35.0544
        XZ      -0.1825     YZ      -0.1853     ZZ     -37.0173
    Octopole Moments (Debye-Ang^2)
       XXX       0.4720    XXY       0.3757    XYY       0.1634
       YYY       0.2843    XXZ       2.3966    XYZ       0.7133
       YYZ       0.4545    XZZ      -0.1201    YZZ       0.3314
       ZZZ       4.7704
    Hexadecapole Moments (Debye-Ang^3)
      XXXX    -836.7805   XXXY      11.0735   XXYY    -168.7013
      XYYY       8.3067   YYYY    -149.9074   XXXZ      25.4313
      XXYZ       1.2924   XYYZ       8.3013   YYYZ       2.7468
      XXZZ    -149.8039   XYZZ       1.3183   YYZZ     -39.0277
      XZZZ      25.2318   YZZZ       4.1022   ZZZZ     -73.6944
 -----------------------------------------------------------------
 Calculating analytic gradient of the SCF energy
 Gradient of SCF Energy
            1           2           3           4           5           6
    1  -0.0238783   0.0607717  -0.0584751   0.0649426  -0.0614891   0.0229726
    2  -0.0005342   0.0308542   0.0168677  -0.0265718  -0.0228385   0.0000846
    3   0.0060587   0.0314278  -0.0226290  -0.0345980   0.0507915   0.0014160
            7           8           9          10          11          12
    1   0.0078113   0.0052074   0.0059085  -0.0197921   0.0166397  -0.0196971
    2   0.0009064   0.0042810  -0.0046189  -0.0326395  -0.0167980   0.0209414
    3   0.0029876  -0.0123570  -0.0041649   0.0039045  -0.0043272  -0.0033202
           13          14          15          16
    1   0.0189442  -0.0069742  -0.0067193  -0.0061726
    2   0.0313539  -0.0003843  -0.0057520   0.0048479
    3  -0.0048731   0.0041764  -0.0101369  -0.0043562
 Max gradient component =       6.494E-02
 RMS gradient           =       2.454E-02
 Gradient time:  CPU 0.12 s  wall 0.13 s
done with opt_step_by_gradient, Reactant, iter1
-Optimizing new product side node
-Starting node optimization
-performing optimization step: 1
 ----------------------------------------------------------------
             Standard Nuclear Orientation (Angstroms)
    I     Atom           X                Y                Z
 ----------------------------------------------------------------
    1      C       2.1697624237    -0.3745121734     0.4514845847
    2      C       0.9693699556     0.4707485392     0.0269626595
    3      C       0.4461541086     0.2861740689    -1.3232843163
    4      C      -0.6132069909    -0.5304686901    -1.1734414549
    5      C      -0.9526596629    -0.4486271442     0.2438640775
    6      C      -2.0966519334     0.4768517988     0.6565660812
    7      H       2.3130670546    -0.2971885429     1.5254152791
    8      H       3.0764291087    -0.0174612078    -0.0288343608
    9      H       2.0356660144    -1.4199580811     0.1971685109
   10      H       1.0984009273     1.5160039302     0.3052303969
   11      H       0.7020370486     0.8973603715    -2.1727447107
   12      H      -0.9776785597    -1.2826450061    -1.8529730330
   13      H      -1.0305458991    -1.4209832098     0.7287562504
   14      H      -2.0951007535     0.6055950017     1.7351366666
   15      H      -3.0546016607     0.0472835371     0.3772062742
   16      H      -2.0107291901     1.4536804902     0.1938939297
 ----------------------------------------------------------------
 Nuclear Repulsion Energy =         224.11592846 hartrees
 There are       23 alpha and       23 beta electrons
 Applying Cartesian multipole field
    Component          Value
    ---------          -----
     (2,0,0)        1.00000E-11
     (0,2,0)        2.00000E-11
     (0,0,2)       -3.00000E-10
 Nucleus-field energy     =    -0.0000000347 hartrees
 Requested basis set is STO-3G
 There are 22 shells and 40 basis functions
 A cutoff of  1.0D-11 yielded    243 shell pairs
 There are       846 function pairs
 Smallest overlap matrix eigenvalue = 1.77E-01
 Guess from superposition of atomic densities
 Warning:  Energy on first SCF cycle will be non-variational
 SAD guess density has 46.000000 electrons

 -----------------------------------------------------------------------
  General SCF calculation program by
  Eric Jon Sundstrom, Paul Horn, Yuezhi Mao, Dmitri Zuev, Alec White,
  David Stuck, Shaama M.S., Shane Yost, Joonho Lee, David Small,
  Daniel Levine, Susi Lehtola, Hugh Burton, Evgeny Epifanovsky,
  Bang C. Huynh
 -----------------------------------------------------------------------
 Hartree-Fock
 A restricted SCF calculation will be
 performed using DIIS
 SCF converges when DIIS error is below 1.0e-08
 ---------------------------------------
  Cycle       Energy         DIIS error
 ---------------------------------------
    1    -229.3061831949      1.66e-01  
    2    -230.0191850776      1.04e-02  
    3    -230.0586316011      2.81e-03  
    4    -230.0615715484      4.93e-04  
    5    -230.0616591395      7.24e-05  
    6    -230.0616644152      2.84e-05  
    7    -230.0616654478      1.12e-05  
    8    -230.0616656121      4.25e-06  
    9    -230.0616656237      1.28e-06  
   10    -230.0616656251      3.13e-07  
   11    -230.0616656253      5.39e-08  
   12    -230.0616656252      1.00e-08  
   13    -230.0616656251      2.05e-09  Convergence criterion met
 ---------------------------------------
 SCF time:   CPU 0.46s  wall 1.00s 
 SCF   energy in the final basis set =     -230.0616656251
 Total energy in the final basis set =     -230.0616656251
 
 --------------------------------------------------------------
 
                    Orbital Energies (a.u.)
 --------------------------------------------------------------
 
 Alpha MOs
 -- Occupied --
-11.0434 -11.0433 -11.0343 -11.0339 -11.0000 -10.9993  -1.0641  -0.9677
 -0.9233  -0.8125  -0.7544  -0.6500  -0.6152  -0.5715  -0.5480  -0.5307
 -0.5253  -0.4873  -0.4777  -0.4451  -0.4246  -0.2613  -0.2499
 -- Virtual --
  0.2569   0.2982   0.6459   0.6500   0.6743   0.6848   0.7074   0.7103
  0.7246   0.7455   0.7616   0.7644   0.7826   0.7868   0.8444   0.8982
  1.1104
 --------------------------------------------------------------
 
          Ground-State Mulliken Net Atomic Charges

     Atom                 Charge (a.u.)
  ----------------------------------------
      1 C                    -0.184165
      2 C                    -0.029727
      3 C                    -0.071886
      4 C                    -0.071598
      5 C                    -0.029847
      6 C                    -0.184115
      7 H                     0.064321
      8 H                     0.066877
      9 H                     0.066721
     10 H                     0.039812
     11 H                     0.048034
     12 H                     0.047797
     13 H                     0.039728
     14 H                     0.064405
     15 H                     0.066912
     16 H                     0.066731
  ----------------------------------------
  Sum of atomic charges =     0.000000

 -----------------------------------------------------------------
                    Cartesian Multipole Moments
 -----------------------------------------------------------------
    Charge (ESU x 10^10)
                 0.0000
    Dipole Moment (Debye)
         X       0.0154      Y       0.0299      Z       0.2679
       Tot       0.2700
    Quadrupole Moments (Debye-Ang)
        XX     -34.7097     XY       0.6962     YY     -35.7445
        XZ      -0.2126     YZ      -0.1639     ZZ     -36.8954
    Octopole Moments (Debye-Ang^2)
       XXX       1.0391    XXY       0.4424    XYY       0.1033
       YYY       1.2358    XXZ       4.9975    XYZ      -0.7678
       YYZ       3.5431    XZZ       0.4941    YZZ       0.9563
       ZZZ      14.9596
    Hexadecapole Moments (Debye-Ang^3)
      XXXX    -534.0435   XXXY      18.2648   XXYY    -110.4295
      XYYY      13.9715   YYYY    -110.4917   XXXZ       8.7975
      XXYZ      -1.7932   XYYZ       3.8915   YYYZ      -5.2732
      XXZZ    -125.6735   XYZZ       6.6228   YYZZ     -51.8570
      XZZZ       9.9016   YZZZ      -5.8342   ZZZZ    -201.8063
 -----------------------------------------------------------------
 Calculating analytic gradient of the SCF energy
 Gradient of SCF Energy
            1           2           3           4           5           6
    1   0.0092528   0.1004247   0.0464860  -0.0408532  -0.1048999  -0.0106820
    2   0.0071495   0.0137175   0.0090097  -0.0027128  -0.0190291  -0.0092195
    3  -0.0119575  -0.0384880   0.0324937   0.0400643  -0.0217022  -0.0088744
            7           8           9          10          11          12
    1  -0.0017435  -0.0004274   0.0000098  -0.0019543  -0.0165007   0.0178080
    2   0.0011162  -0.0019604   0.0014846  -0.0028624   0.0110504  -0.0083854
    3  -0.0009268   0.0027478   0.0015087  -0.0111404   0.0127856   0.0121636
           13          14          15          16
    1   0.0005296   0.0015778   0.0007549   0.0002173
    2   0.0006325  -0.0012734   0.0024591  -0.0011764
    3  -0.0117867  -0.0009029   0.0022719   0.0017434
 Max gradient component =       1.049E-01
 RMS gradient           =       2.588E-02
 Gradient time:  CPU 0.12 s  wall 0.12 s
-taking node optimization step
Magnitude of Displacement (Angstroms): 0.1332294
-performing optimization step: 2
 ----------------------------------------------------------------
             Standard Nuclear Orientation (Angstroms)
    I     Atom           X                Y                Z
 ----------------------------------------------------------------
    1      C       2.1686151821    -0.3847700066     0.4583184992
    2      C       0.9193699556     0.4588115060     0.0710843842
    3      C       0.3961541086     0.2814242823    -1.3492661289
    4      C      -0.5662845101    -0.5307041105    -1.2070658310
    5      C      -0.9026596629    -0.4302731361     0.2717047985
    6      C      -2.0947161963     0.4883043743     0.6609089781
    7      H       2.3315198697    -0.3006683596     1.5192861423
    8      H       3.0840527896    -0.0225375315    -0.0444953545
    9      H       2.0378300712    -1.4236932384     0.1915532719
   10      H       1.1166935939     1.5214328112     0.3188097141
   11      H       0.7010049518     0.9024534987    -2.1739160002
   12      H      -0.9762896600    -1.2884245323    -1.8530333670
   13      H      -1.0469230025    -1.4234259495     0.7456535768
   14      H      -2.1142056576     0.6081592671     1.7309184283
   15      H      -3.0642891462     0.0494249723     0.3619824384
   16      H      -2.0136701715     1.4563436827     0.1879630810
 ----------------------------------------------------------------
 Nuclear Repulsion Energy =         223.81361995 hartrees
 There are       23 alpha and       23 beta electrons
 Applying Cartesian multipole field
    Component          Value
    ---------          -----
     (2,0,0)        1.00000E-11
     (0,2,0)        2.00000E-11
     (0,0,2)       -3.00000E-10
 Nucleus-field energy     =    -0.0000000359 hartrees
 Requested basis set is STO-3G
 There are 22 shells and 40 basis functions
 A cutoff of  1.0D-11 yielded    243 shell pairs
 There are       846 function pairs
 Smallest overlap matrix eigenvalue = 1.55E-01
 Guess from superposition of atomic densities
 Warning:  Energy on first SCF cycle will be non-variational
 SAD guess density has 46.000000 electrons

 -----------------------------------------------------------------------
  General SCF calculation program by
  Eric Jon Sundstrom, Paul Horn, Yuezhi Mao, Dmitri Zuev, Alec White,
  David Stuck, Shaama M.S., Shane Yost, Joonho Lee, David Small,
  Daniel Levine, Susi Lehtola, Hugh Burton, Evgeny Epifanovsky,
  Bang C. Huynh
 -----------------------------------------------------------------------
 Hartree-Fock
 A restricted SCF calculation will be
 performed using DIIS
 SCF converges when DIIS error is below 1.0e-08
 ---------------------------------------
  Cycle       Energy         DIIS error
 ---------------------------------------
    1    -229.2158744898      1.65e-01  
    2    -230.0397277543      1.03e-02  
    3    -230.0793390986      2.82e-03  
    4    -230.0823994701      4.70e-04  
    5    -230.0824833248      8.76e-05  
    6    -230.0824897052      4.08e-05  
    7    -230.0824907928      1.34e-05  
    8    -230.0824909693      2.52e-06  
    9    -230.0824909743      5.19e-07  
   10    -230.0824909745      1.55e-07  
   11    -230.0824909744      4.91e-08  
   12    -230.0824909745      1.64e-08  
   13    -230.0824909745      3.15e-09  Convergence criterion met
 ---------------------------------------
 SCF time:   CPU 0.44s  wall 1.00s 
 SCF   energy in the final basis set =     -230.0824909745
 Total energy in the final basis set =     -230.0824909745
 
 --------------------------------------------------------------
 
                    Orbital Energies (a.u.)
 --------------------------------------------------------------
 
 Alpha MOs
 -- Occupied --
-11.0407 -11.0400 -11.0378 -11.0362 -11.0047 -11.0032  -1.0685  -0.9547
 -0.9267  -0.7957  -0.7625  -0.6479  -0.6194  -0.5640  -0.5458  -0.5261
 -0.5237  -0.4806  -0.4654  -0.4460  -0.4021  -0.2826  -0.2822
 -- Virtual --
  0.2921   0.3230   0.6178   0.6323   0.6518   0.6739   0.6874   0.6956
  0.7075   0.7397   0.7525   0.7586   0.7659   0.7808   0.8155   0.8878
  1.1991
 --------------------------------------------------------------
 
          Ground-State Mulliken Net Atomic Charges

     Atom                 Charge (a.u.)
  ----------------------------------------
      1 C                    -0.183718
      2 C                    -0.020982
      3 C                    -0.077622
      4 C                    -0.077745
      5 C                    -0.018796
      6 C                    -0.183660
      7 H                     0.064282
      8 H                     0.061123
      9 H                     0.064489
     10 H                     0.037025
     11 H                     0.053932
     12 H                     0.053455
     13 H                     0.037194
     14 H                     0.064811
     15 H                     0.061343
     16 H                     0.064870
  ----------------------------------------
  Sum of atomic charges =     0.000000

 -----------------------------------------------------------------
                    Cartesian Multipole Moments
 -----------------------------------------------------------------
    Charge (ESU x 10^10)
                 0.0000
    Dipole Moment (Debye)
         X      -0.0095      Y       0.0157      Z       0.1345
       Tot       0.1358
    Quadrupole Moments (Debye-Ang)
        XX     -34.8640     XY       0.8097     YY     -35.7783
        XZ      -0.2113     YZ      -0.1499     ZZ     -36.6420
    Octopole Moments (Debye-Ang^2)
       XXX       1.0110    XXY       0.4261    XYY       0.0904
       YYY       1.1385    XXZ       4.8105    XYZ      -0.7479
       YYZ       3.2187    XZZ       0.4506    YZZ       0.9206
       ZZZ      13.8805
    Hexadecapole Moments (Debye-Ang^3)
      XXXX    -527.5048   XXXY      20.7545   XXYY    -109.2212
      XYYY      16.9289   YYYY    -110.4817   XXXZ       8.1353
      XXYZ      -1.8514   XYYZ       3.6752   YYYZ      -5.6877
      XXZZ    -124.9861   XYZZ       7.7568   YYZZ     -52.4090
      XZZZ       9.0173   YZZZ      -6.3621   ZZZZ    -205.8148
 -----------------------------------------------------------------
 Calculating analytic gradient of the SCF energy
 Gradient of SCF Energy
            1           2           3           4           5           6
    1   0.0081278   0.0935725  -0.0702863   0.0706639  -0.0954387  -0.0051338
    2  -0.0081291   0.0154895  -0.0708197   0.0693925  -0.0136619   0.0100815
    3   0.0114145  -0.0021137   0.0026825  -0.0166823   0.0071256   0.0115358
            7           8           9          10          11          12
    1  -0.0023921   0.0157916   0.0007586   0.0121511  -0.0170671   0.0181296
    2   0.0026866   0.0006871   0.0055028   0.0118987   0.0157859  -0.0131388
    3  -0.0097271  -0.0037354  -0.0005756  -0.0122276   0.0145145   0.0147115
           13          14          15          16
    1  -0.0129751   0.0006422  -0.0158437  -0.0007004
    2  -0.0144860  -0.0041513  -0.0015030  -0.0056349
    3  -0.0069773  -0.0090606  -0.0015227   0.0006379
 Max gradient component =       9.544E-02
 RMS gradient           =       2.960E-02
 Gradient time:  CPU 0.12 s  wall 0.12 s
-taking optimization step
Magnitude of Displacement (Angstroms): 0.1562660
-performing optimization step: 3
 ----------------------------------------------------------------
             Standard Nuclear Orientation (Angstroms)
    I     Atom           X                Y                Z
 ----------------------------------------------------------------
    1      C       2.1676981753    -0.3888331202     0.4466368034
    2      C       0.8693699556     0.4330890872     0.1200972218
    3      C       0.4204192873     0.3314242823    -1.3688686330
    4      C      -0.5928061239    -0.5807041105    -1.2128568418
    5      C      -0.8526596629    -0.3994130567     0.2963389423
    6      C      -2.0970138116     0.4903938779     0.6474550670
    7      H       2.3694334673    -0.3093689425     1.5164001431
    8      H       3.0819192796    -0.0356834188    -0.0690505051
    9      H       2.0413901757    -1.4355417532     0.1825010441
   10      H       1.1383494099     1.5163913134     0.3471725975
   11      H       0.6992029117     0.9078448849    -2.1778888640
   12      H      -0.9734726496    -1.2951287051    -1.8556620136
   13      H      -1.0653902269    -1.4120157115     0.7743314093
   14      H      -2.1517316602     0.6164205837     1.7311915586
   15      H      -3.0659055891     0.0580761697     0.3353906300
   16      H      -2.0186120269     1.4665100142     0.1772175747
 ----------------------------------------------------------------
 Nuclear Repulsion Energy =         222.17836119 hartrees
 There are       23 alpha and       23 beta electrons
 Applying Cartesian multipole field
    Component          Value
    ---------          -----
     (2,0,0)        1.00000E-11
     (0,2,0)        2.00000E-11
     (0,0,2)       -3.00000E-10
 Nucleus-field energy     =    -0.0000000364 hartrees
 Requested basis set is STO-3G
 There are 22 shells and 40 basis functions
 A cutoff of  1.0D-11 yielded    244 shell pairs
 There are       847 function pairs
 Smallest overlap matrix eigenvalue = 1.96E-01
 Guess from superposition of atomic densities
 Warning:  Energy on first SCF cycle will be non-variational
 SAD guess density has 46.000000 electrons

 -----------------------------------------------------------------------
  General SCF calculation program by
  Eric Jon Sundstrom, Paul Horn, Yuezhi Mao, Dmitri Zuev, Alec White,
  David Stuck, Shaama M.S., Shane Yost, Joonho Lee, David Small,
  Daniel Levine, Susi Lehtola, Hugh Burton, Evgeny Epifanovsky,
  Bang C. Huynh
 -----------------------------------------------------------------------
 Hartree-Fock
 A restricted SCF calculation will be
 performed using DIIS
 SCF converges when DIIS error is below 1.0e-08
 ---------------------------------------
  Cycle       Energy         DIIS error
 ---------------------------------------
    1    -228.9221822993      1.55e-01  
    2    -230.0468649906      1.05e-02  
    3    -230.0880327886      2.92e-03  
    4    -230.0912664770      6.17e-04  
    5    -230.0914053570      9.59e-05  
    6    -230.0914106199      4.72e-05  
    7    -230.0914119933      1.36e-05  
    8    -230.0914121448      4.05e-06  
    9    -230.0914121591      7.58e-07  
   10    -230.0914121598      2.87e-07  
   11    -230.0914121599      1.17e-07  
   12    -230.0914121598      2.29e-08  
   13    -230.0914121598      4.24e-09  Convergence criterion met
 ---------------------------------------
 SCF time:   CPU 0.44s  wall 0.00s 
 SCF   energy in the final basis set =     -230.0914121598
 Total energy in the final basis set =     -230.0914121598
 
 --------------------------------------------------------------
 
                    Orbital Energies (a.u.)
 --------------------------------------------------------------
 
 Alpha MOs
 -- Occupied --
-11.0481 -11.0453 -11.0396 -11.0387 -10.9959 -10.9953  -1.0490  -0.9480
 -0.9127  -0.7910  -0.7604  -0.6594  -0.6168  -0.5560  -0.5345  -0.5229
 -0.5216  -0.4707  -0.4479  -0.4224  -0.3957  -0.3281  -0.2548
 -- Virtual --
  0.2987   0.3286   0.5879   0.6004   0.6541   0.6644   0.6751   0.6891
  0.7261   0.7369   0.7386   0.7479   0.7526   0.7692   0.8165   0.8225
  1.1031
 --------------------------------------------------------------
 
          Ground-State Mulliken Net Atomic Charges

     Atom                 Charge (a.u.)
  ----------------------------------------
      1 C                    -0.177327
      2 C                    -0.012721
      3 C                    -0.085478
      4 C                    -0.086325
      5 C                    -0.008592
      6 C                    -0.177313
      7 H                     0.058610
      8 H                     0.060619
      9 H                     0.060387
     10 H                     0.034159
     11 H                     0.059633
     12 H                     0.058944
     13 H                     0.034015
     14 H                     0.059395
     15 H                     0.061035
     16 H                     0.060958
  ----------------------------------------
  Sum of atomic charges =     0.000000

 -----------------------------------------------------------------
                    Cartesian Multipole Moments
 -----------------------------------------------------------------
    Charge (ESU x 10^10)
                 0.0000
    Dipole Moment (Debye)
         X      -0.0154      Y       0.0152      Z       0.0964
       Tot       0.0987
    Quadrupole Moments (Debye-Ang)
        XX     -34.8480     XY       0.8705     YY     -35.9604
        XZ      -0.2331     YZ      -0.1395     ZZ     -36.6184
    Octopole Moments (Debye-Ang^2)
       XXX       1.0938    XXY       0.4136    XYY       0.1171
       YYY       1.0897    XXZ       4.6768    XYZ      -0.7351
       YYZ       3.0518    XZZ       0.4492    YZZ       0.8801
       ZZZ      13.0694
    Hexadecapole Moments (Debye-Ang^3)
      XXXX    -523.9839   XXXY      21.3416   XXYY    -109.3827
      XYYY      18.0563   YYYY    -112.5222   XXXZ       7.6204
      XXYZ      -1.8020   XYYZ       3.5432   YYYZ      -5.7945
      XXZZ    -124.9239   XYZZ       8.1520   YYZZ     -53.1119
      XZZZ       8.5373   YZZZ      -6.4240   ZZZZ    -207.2693
 -----------------------------------------------------------------
 Calculating analytic gradient of the SCF energy
 Gradient of SCF Energy
            1           2           3           4           5           6
    1   0.0105098   0.0631042   0.0712173  -0.0775004  -0.0619444  -0.0105325
    2   0.0037363  -0.0157102   0.0820198  -0.0901995   0.0204613  -0.0042185
    3  -0.0066647   0.0344919  -0.0728607  -0.0344863   0.0202430  -0.0030745
            7           8           9          10          11          12
    1   0.0006521   0.0215570   0.0002884   0.0267626  -0.0317238   0.0359006
    2   0.0043459  -0.0036853   0.0007866   0.0306574  -0.0163001   0.0224678
    3   0.0028729  -0.0016757  -0.0025480  -0.0168500   0.0456273   0.0358422
           13          14          15          16
    1  -0.0268914  -0.0011653  -0.0199298  -0.0003042
    2  -0.0329635  -0.0028550   0.0031628  -0.0017057
    3  -0.0041949   0.0045923   0.0006756  -0.0019907
 Max gradient component =       9.020E-02
 RMS gradient           =       3.354E-02
 Gradient time:  CPU 0.12 s  wall 0.12 s
-taking optimization step
Magnitude of Displacement (Angstroms): 0.2054078
 ----------------------------------------------------------------
             Standard Nuclear Orientation (Angstroms)
    I     Atom           X                Y                Z
 ----------------------------------------------------------------
    1      C       2.1676981753    -0.3888331202     0.4466368034
    2      C       0.8693699556     0.4330890872     0.1200972218
    3      C       0.4204192873     0.3314242823    -1.3688686330
    4      C      -0.5928061239    -0.5807041105    -1.2128568418
    5      C      -0.8526596629    -0.3994130567     0.2963389423
    6      C      -2.0970138116     0.4903938779     0.6474550670
    7      H       2.3694334673    -0.3093689425     1.5164001431
    8      H       3.0819192796    -0.0356834188    -0.0690505051
    9      H       2.0413901757    -1.4355417532     0.1825010441
   10      H       1.1383494099     1.5163913134     0.3471725975
   11      H       0.6992029117     0.9078448849    -2.1778888640
   12      H      -0.9734726496    -1.2951287051    -1.8556620136
   13      H      -1.0653902269    -1.4120157115     0.7743314093
   14      H      -2.1517316602     0.6164205837     1.7311915586
   15      H      -3.0659055891     0.0580761697     0.3353906300
   16      H      -2.0186120269     1.4665100142     0.1772175747
 ----------------------------------------------------------------
 Nuclear Repulsion Energy =         222.17836119 hartrees
 There are       23 alpha and       23 beta electrons
 Applying Cartesian multipole field
    Component          Value
    ---------          -----
     (2,0,0)        1.00000E-11
     (0,2,0)        2.00000E-11
     (0,0,2)       -3.00000E-10
 Nucleus-field energy     =    -0.0000000364 hartrees
 Requested basis set is STO-3G
 There are 22 shells and 40 basis functions
 A cutoff of  1.0D-11 yielded    244 shell pairs
 There are       847 function pairs
 Smallest overlap matrix eigenvalue = 1.96E-01
 Guess from superposition of atomic densities
 Warning:  Energy on first SCF cycle will be non-variational
 SAD guess density has 46.000000 electrons

 -----------------------------------------------------------------------
  General SCF calculation program by
  Eric Jon Sundstrom, Paul Horn, Yuezhi Mao, Dmitri Zuev, Alec White,
  David Stuck, Shaama M.S., Shane Yost, Joonho Lee, David Small,
  Daniel Levine, Susi Lehtola, Hugh Burton, Evgeny Epifanovsky,
  Bang C. Huynh
 -----------------------------------------------------------------------
 Hartree-Fock
 A restricted SCF calculation will be
 performed using DIIS
 SCF converges when DIIS error is below 1.0e-08
 ---------------------------------------
  Cycle       Energy         DIIS error
 ---------------------------------------
    1    -228.9221822993      1.55e-01  
    2    -230.0468649906      1.05e-02  
    3    -230.0880327886      2.92e-03  
    4    -230.0912664770      6.17e-04  
    5    -230.0914053570      9.59e-05  
    6    -230.0914106199      4.72e-05  
    7    -230.0914119933      1.36e-05  
    8    -230.0914121448      4.05e-06  
    9    -230.0914121591      7.58e-07  
   10    -230.0914121598      2.87e-07  
   11    -230.0914121599      1.17e-07  
   12    -230.0914121598      2.29e-08  
   13    -230.0914121598      4.24e-09  Convergence criterion met
 ---------------------------------------
 SCF time:   CPU 0.44s  wall 1.00s 
 SCF   energy in the final basis set =     -230.0914121598
 Total energy in the final basis set =     -230.0914121598
 
 --------------------------------------------------------------
 
                    Orbital Energies (a.u.)
 --------------------------------------------------------------
 
 Alpha MOs
 -- Occupied --
-11.0481 -11.0453 -11.0396 -11.0387 -10.9959 -10.9953  -1.0490  -0.9480
 -0.9127  -0.7910  -0.7604  -0.6594  -0.6168  -0.5560  -0.5345  -0.5229
 -0.5216  -0.4707  -0.4479  -0.4224  -0.3957  -0.3281  -0.2548
 -- Virtual --
  0.2987   0.3286   0.5879   0.6004   0.6541   0.6644   0.6751   0.6891
  0.7261   0.7369   0.7386   0.7479   0.7526   0.7692   0.8165   0.8225
  1.1031
 --------------------------------------------------------------
 
          Ground-State Mulliken Net Atomic Charges

     Atom                 Charge (a.u.)
  ----------------------------------------
      1 C                    -0.177327
      2 C                    -0.012721
      3 C                    -0.085478
      4 C                    -0.086325
      5 C                    -0.008592
      6 C                    -0.177313
[...]
 There are       23 alpha and       23 beta electrons
 Applying Cartesian multipole field
    Component          Value
    ---------          -----
     (2,0,0)        1.00000E-11
     (0,2,0)        2.00000E-11
     (0,0,2)       -3.00000E-10
 Nucleus-field energy     =    -0.0000000204 hartrees
 Requested basis set is STO-3G
 There are 22 shells and 40 basis functions
 A cutoff of  1.0D-11 yielded    243 shell pairs
 There are       846 function pairs
 Smallest overlap matrix eigenvalue = 1.87E-01
 Guess from superposition of atomic densities
 Warning:  Energy on first SCF cycle will be non-variational
 SAD guess density has 46.000000 electrons

 -----------------------------------------------------------------------
  General SCF calculation program by
  Eric Jon Sundstrom, Paul Horn, Yuezhi Mao, Dmitri Zuev, Alec White,
  David Stuck, Shaama M.S., Shane Yost, Joonho Lee, David Small,
  Daniel Levine, Susi Lehtola, Hugh Burton, Evgeny Epifanovsky,
  Bang C. Huynh
 -----------------------------------------------------------------------
 Hartree-Fock
 A restricted SCF calculation will be
 performed using DIIS
 SCF converges when DIIS error is below 1.0e-08
 ---------------------------------------
  Cycle       Energy         DIIS error
 ---------------------------------------
    1    -229.2526483537      1.65e-01  
    2    -230.0042694863      1.03e-02  
    3    -230.0429575054      2.78e-03  
    4    -230.0459624281      4.80e-04  
    5    -230.0460583583      1.27e-04  
    6    -230.0460696689      6.53e-05  
    7    -230.0460736834      1.63e-05  
    8    -230.0460739451      4.59e-06  
    9    -230.0460739587      2.12e-06  
   10    -230.0460739611      6.61e-07  
   11    -230.0460739614      1.16e-07  
   12    -230.0460739614      2.61e-08  
   13    -230.0460739615      5.42e-09  Convergence criterion met
 ---------------------------------------
 SCF time:   CPU 0.46s  wall 0.00s 
 SCF   energy in the final basis set =     -230.0460739615
 Total energy in the final basis set =     -230.0460739615
 
 --------------------------------------------------------------
 
                    Orbital Energies (a.u.)
 --------------------------------------------------------------
 
 Alpha MOs
 -- Occupied --
-11.0465 -11.0459 -11.0150 -11.0148 -11.0090 -11.0071  -1.0403  -0.9776
 -0.9033  -0.8497  -0.7303  -0.6572  -0.6030  -0.5871  -0.5305  -0.5166
 -0.5140  -0.4866  -0.4804  -0.4655  -0.4223  -0.2570  -0.2468
 -- Virtual --
  0.2291   0.3020   0.6324   0.6382   0.6543   0.6578   0.6656   0.7153
  0.7299   0.7467   0.7488   0.7645   0.7678   0.8660   0.9213   0.9764
  1.0485
 --------------------------------------------------------------
 
          Ground-State Mulliken Net Atomic Charges

     Atom                 Charge (a.u.)
  ----------------------------------------
      1 C                    -0.167827
      2 C                    -0.051198
      3 C                    -0.068430
      4 C                    -0.071095
      5 C                    -0.049558
      6 C                    -0.169580
      7 H                     0.059941
      8 H                     0.063032
      9 H                     0.064749
     10 H                     0.044835
     11 H                     0.056320
     12 H                     0.055490
     13 H                     0.045021
     14 H                     0.060010
     15 H                     0.063510
     16 H                     0.064780
  ----------------------------------------
  Sum of atomic charges =     0.000000

 -----------------------------------------------------------------
                    Cartesian Multipole Moments
 -----------------------------------------------------------------
    Charge (ESU x 10^10)
                 0.0000
    Dipole Moment (Debye)
         X       0.0087      Y      -0.0054      Z      -0.0038
       Tot       0.0110
    Quadrupole Moments (Debye-Ang)
        XX     -34.2558     XY      -0.0535     YY     -35.5610
        XZ      -0.1484     YZ      -0.0887     ZZ     -36.2981
    Octopole Moments (Debye-Ang^2)
       XXX       1.4279    XXY       0.3959    XYY       0.2575
       YYY       0.4193    XXZ       4.6209    XYZ       0.1035
       YYZ       1.5871    XZZ       0.1431    YZZ       0.5969
       ZZZ       9.2511
    Hexadecapole Moments (Debye-Ang^3)
      XXXX    -635.6222   XXXY      10.0209   XXYY    -133.6884
      XYYY       9.7102   YYYY    -140.8799   XXXZ      14.9296
      XXYZ      -0.0018   XYYZ       5.4662   YYYZ      -0.4786
      XXZZ    -131.4937   XYZZ       3.4780   YYZZ     -46.6682
      XZZZ      15.3533   YZZZ      -1.1654   ZZZZ    -144.3785
 -----------------------------------------------------------------
 Calculating analytic gradient of the SCF energy
 Gradient of SCF Energy
            1           2           3           4           5           6
    1  -0.0074240  -0.0154367   0.0161323  -0.0168891   0.0177086   0.0046798
    2   0.0055032  -0.0029573   0.0215428  -0.0229292   0.0095647  -0.0076259
    3  -0.0094431   0.0466983  -0.0280986  -0.0291729   0.0459249  -0.0093755
            7           8           9          10          11          12
    1   0.0122804   0.0129556   0.0097292  -0.0191832   0.0142638  -0.0157765
    2   0.0005178   0.0009366  -0.0055649  -0.0215626  -0.0200417   0.0171583
    3   0.0027766  -0.0085168  -0.0046694   0.0070085  -0.0037764  -0.0040853
           13          14          15          16
    1   0.0198268  -0.0112029  -0.0118450  -0.0098190
    2   0.0230278   0.0000742  -0.0023720   0.0047280
    3   0.0008251   0.0038721  -0.0057326  -0.0042348
 Max gradient component =       4.670E-02
 RMS gradient           =       1.610E-02
 Gradient time:  CPU 0.12 s  wall 0.13 s
 ----------------------------------------------------------------
             Standard Nuclear Orientation (Angstroms)
    I     Atom           X                Y                Z
 ----------------------------------------------------------------
    1      C       2.3288825805    -0.4182616209     0.3431629753
    2      C       1.2360611469     0.6186032730     0.0107439848
    3      C       0.4014666857     0.5007039555    -1.0496960927
    4      C      -0.5402127746    -0.6763381719    -0.8865907249
    5      C      -1.2278570180    -0.5943297393     0.2817461611
    6      C      -2.2740674486     0.5010801847     0.5625344434
    7      H       2.7678450360    -0.3407468611     1.3448587198
    8      H       3.1639688333    -0.1632632115    -0.3418944735
    9      H       2.1026853509    -1.4635900486     0.1266670659
   10      H       1.5667530395     1.5968200646     0.2755950294
   11      H       0.2748820022     1.2570785868    -1.7995438955
   12      H      -0.4984403334    -1.5703772141    -1.4785885356
   13      H      -1.5009577675    -1.5004130396     0.7715378096
   14      H      -2.5690125011     0.6176737279     1.6110742788
   15      H      -3.1884997913     0.1342830355     0.0572090569
   16      H      -2.0876367502     1.4835572760     0.1259987994
 ----------------------------------------------------------------
 Nuclear Repulsion Energy =         218.17077011 hartrees
 There are       23 alpha and       23 beta electrons
 Applying Cartesian multipole field
    Component          Value
    ---------          -----
     (2,0,0)        1.00000E-11
     (0,2,0)        2.00000E-11
     (0,0,2)       -3.00000E-10
 Nucleus-field energy     =    -0.0000000203 hartrees
 Requested basis set is STO-3G
 There are 22 shells and 40 basis functions
 A cutoff of  1.0D-11 yielded    243 shell pairs
 There are       846 function pairs
 Smallest overlap matrix eigenvalue = 1.87E-01
 Guess from superposition of atomic densities
 Warning:  Energy on first SCF cycle will be non-variational
 SAD guess density has 46.000000 electrons

 -----------------------------------------------------------------------
  General SCF calculation program by
  Eric Jon Sundstrom, Paul Horn, Yuezhi Mao, Dmitri Zuev, Alec White,
  David Stuck, Shaama M.S., Shane Yost, Joonho Lee, David Small,
  Daniel Levine, Susi Lehtola, Hugh Burton, Evgeny Epifanovsky,
  Bang C. Huynh
 -----------------------------------------------------------------------
 Hartree-Fock
 A restricted SCF calculation will be
 performed using DIIS
 SCF converges when DIIS error is below 1.0e-08
 ---------------------------------------
  Cycle       Energy         DIIS error
 ---------------------------------------
    1    -229.2540321305      1.65e-01  
    2    -230.0049719102      1.03e-02  
    3    -230.0436259156      2.78e-03  
    4    -230.0466212488      4.77e-04  
    5    -230.0467154428      1.24e-04  
    6    -230.0467263458      6.41e-05  
    7    -230.0467301276      1.61e-05  
    8    -230.0467303818      4.51e-06  
    9    -230.0467303950      2.09e-06  
   10    -230.0467303974      6.51e-07  
   11    -230.0467303977      1.14e-07  
   12    -230.0467303977      2.58e-08  
   13    -230.0467303978      5.36e-09  Convergence criterion met
 ---------------------------------------
 SCF time:   CPU 0.45s  wall 0.00s 
 SCF   energy in the final basis set =     -230.0467303978
 Total energy in the final basis set =     -230.0467303978
 
 --------------------------------------------------------------
 
                    Orbital Energies (a.u.)
 --------------------------------------------------------------
 
 Alpha MOs
 -- Occupied --
-11.0465 -11.0458 -11.0150 -11.0148 -11.0091 -11.0072  -1.0403  -0.9777
 -0.9033  -0.8498  -0.7303  -0.6572  -0.6028  -0.5874  -0.5305  -0.5167
 -0.5141  -0.4866  -0.4805  -0.4655  -0.4223  -0.2571  -0.2473
 -- Virtual --
  0.2295   0.3020   0.6324   0.6382   0.6543   0.6580   0.6656   0.7152
  0.7299   0.7467   0.7488   0.7646   0.7676   0.8666   0.9217   0.9771
  1.0483
 --------------------------------------------------------------
 
          Ground-State Mulliken Net Atomic Charges

     Atom                 Charge (a.u.)
  ----------------------------------------
      1 C                    -0.167866
      2 C                    -0.051394
      3 C                    -0.068344
      4 C                    -0.071006
      5 C                    -0.049756
      6 C                    -0.169620
      7 H                     0.059942
      8 H                     0.063024
      9 H                     0.064760
     10 H                     0.044992
     11 H                     0.056317
     12 H                     0.055475
     13 H                     0.045176
     14 H                     0.060011
     15 H                     0.063503
     16 H                     0.064786
  ----------------------------------------
  Sum of atomic charges =     0.000000

 -----------------------------------------------------------------
                    Cartesian Multipole Moments
 -----------------------------------------------------------------
    Charge (ESU x 10^10)
                 0.0000
    Dipole Moment (Debye)
         X       0.0088      Y      -0.0054      Z      -0.0040
       Tot       0.0111
    Quadrupole Moments (Debye-Ang)
        XX     -34.2580     XY      -0.0543     YY     -35.5564
        XZ      -0.1484     YZ      -0.0897     ZZ     -36.3021
    Octopole Moments (Debye-Ang^2)
       XXX       1.4277    XXY       0.3967    XYY       0.2593
       YYY       0.4177    XXZ       4.6154    XYZ       0.1134
       YYZ       1.5819    XZZ       0.1415    YZZ       0.5963
       ZZZ       9.2460
    Hexadecapole Moments (Debye-Ang^3)
      XXXX    -636.7049   XXXY      10.0357   XXYY    -133.8906
      XYYY       9.7171   YYYY    -140.9266   XXXZ      14.9783
      XXYZ       0.0033   XYYZ       5.4787   YYYZ      -0.4630
      XXZZ    -131.6069   XYZZ       3.4613   YYZZ     -46.6249
      XZZZ      15.4043   YZZZ      -1.1424   ZZZZ    -144.0398
 -----------------------------------------------------------------
 Calculating analytic gradient of the SCF energy
 Gradient of SCF Energy
            1           2           3           4           5           6
    1  -0.0074704  -0.0155370   0.0162582  -0.0169848   0.0177988   0.0047310
    2   0.0053471  -0.0026127   0.0212092  -0.0225541   0.0092476  -0.0074955
    3  -0.0094473   0.0468025  -0.0279654  -0.0290874   0.0460878  -0.0094055
            7           8           9          10          11          12
    1   0.0122484   0.0129779   0.0096918  -0.0192271   0.0142347  -0.0157641
    2   0.0005330   0.0009713  -0.0054820  -0.0217401  -0.0199545   0.0170287
    3   0.0027861  -0.0085743  -0.0046538   0.0069673  -0.0039215  -0.0042205
           13          14          15          16
    1   0.0198627  -0.0111708  -0.0118706  -0.0097787
    2   0.0231969   0.0000637  -0.0024171   0.0046585
    3   0.0007448   0.0038793  -0.0057787  -0.0042135
 Max gradient component =       4.680E-02
 RMS gradient           =       1.610E-02
 Gradient time:  CPU 0.12 s  wall 0.13 s
 E1 = -230.0460740, E2 = -230.0467304, Emax = -230.0464020
 Iteration 5, Curvature = -0.0118020
 Curvature, final (in Hartree/Bohr^2) = -0.0033049
 ----------------------------------------------------------------
             Standard Nuclear Orientation (Angstroms)
    I     Atom           X                Y                Z
 ----------------------------------------------------------------
    1      C       2.3279894128    -0.4181681879     0.3436705693
    2      C       1.2349852390     0.6184452329     0.0108793651
    3      C       0.4013059017     0.5005814623    -1.0505443323
    4      C      -0.5401620023    -0.6763831783    -0.8874512754
    5      C      -1.2267716244    -0.5941691744     0.2817103703
    6      C      -2.2731161400     0.5010752920     0.5629178184
    7      H       2.7665665159    -0.3407527923     1.3455433174
    8      H       3.1633003966    -0.1627863152    -0.3409227181
    9      H       2.1024139255    -1.4636143802     0.1268144737
   10      H       1.5655099609     1.5967399859     0.2761498661
   11      H       0.2763363791     1.2561801696    -1.8013655570
   12      H      -0.5001222698    -1.5698265245    -1.4803473464
   13      H      -1.4996652577    -1.5002539758     0.7718875621
   14      H      -2.5676484157     0.6177929126     1.6115606672
   15      H      -3.1877090872     0.1339857970     0.0581558100
   16      H      -2.0873473250     1.4836025413     0.1260905370
 ----------------------------------------------------------------
 Nuclear Repulsion Energy =         218.18689133 hartrees
 There are       23 alpha and       23 beta electrons
 Requested basis set is STO-3G
 There are 22 shells and 40 basis functions
 Geometry Optimization Parameters
   NAtoms,    NIC,     NZ,  NCons,   NDum,   NFix, NCnnct, MaxDiis
       16      95       0       0       0       0       0       0


** GEOMETRY OPTIMIZATION IN DELOCALIZED INTERNAL COORDINATES **
   Searching for a Minimum

   Optimization Cycle:   1

                       Coordinates (Angstroms)
     ATOM                X               Y               Z
      1  C         2.3279894128   -0.4181681879    0.3436705693
      2  C         1.2349852390    0.6184452329    0.0108793651
      3  C         0.4013059017    0.5005814623   -1.0505443323
      4  C        -0.5401620023   -0.6763831783   -0.8874512754
      5  C        -1.2267716244   -0.5941691744    0.2817103703
      6  C        -2.2731161400    0.5010752920    0.5629178184
      7  H         2.7665665159   -0.3407527923    1.3455433174
      8  H         3.1633003966   -0.1627863152   -0.3409227181
      9  H         2.1024139255   -1.4636143802    0.1268144737
     10  H         1.5655099609    1.5967399859    0.2761498661
     11  H         0.2763363791    1.2561801696   -1.8013655570
     12  H        -0.5001222698   -1.5698265245   -1.4803473464
     13  H        -1.4996652577   -1.5002539758    0.7718875621
     14  H        -2.5676484157    0.6177929126    1.6115606672
     15  H        -3.1877090872    0.1339857970    0.0581558100
     16  H        -2.0873473250    1.4836025413    0.1260905370
   Point Group: c1    Number of degrees of freedom:    42


   Energy is   -230.046730398


 Attempting to generate delocalized internal coordinates
 Initial Hessian constructed with Jon Baker's OPTIMIZE code

 42 Hessian modes will be used to form the next step
  Hessian Eigenvalues:
     0.003528    0.003807    0.007064    0.018739    0.018879    0.019937
     0.020274    0.027916    0.028383    0.056319    0.056764    0.075744
     0.076135    0.145024    0.145585    0.156220    0.157086    0.160000
     0.160000    0.160000    0.160000    0.160000    0.160000    0.220406
     0.220521    0.224536    0.224898    0.282796    0.284651    0.307567
     0.326223    0.328921    0.340834    0.341897    0.346664    0.346759
     0.368511    0.369146    0.377210    0.377778    0.532812    0.540088

 Minimum search - taking simple RFO step
 Searching for Lamda that Minimizes Along All modes
 Value Taken    Lamda =  -0.09752537
 Calculated Step too Large.  Step scaled by  0.377389
 Step Taken.  Stepsize is  0.300000

                             Maximum     Tolerance    Cnvgd?
         Gradient           0.090878      0.000300      NO
         Displacement       0.195888      0.001200      NO
         Energy change     *********      0.000001      NO


 New Cartesian Coordinates Obtained by Inverse Iteration

 Displacement from previous Coordinates is:  0.988009
 ----------------------------------------------------------------
             Standard Nuclear Orientation (Angstroms)
    I     Atom           X                Y                Z
 ----------------------------------------------------------------
    1      C       2.2888373679    -0.3769689030     0.3965081699
    2      C       1.2598669904     0.6668182438    -0.0603236934
    3      C       0.3999835105     0.4976659714    -1.0852878526
    4      C      -0.5428336542    -0.6796189979    -0.9199801111
    5      C      -1.2591946822    -0.6538779210     0.2249644394
    6      C      -2.2270910669     0.4697958235     0.6171853385
    7      H       2.7093501067    -0.2062450840     1.3908172570
    8      H       3.1363399266    -0.2531439172    -0.2978306927
    9      H       1.9853788348    -1.4191011659     0.3035007543
   10      H       1.6307627981     1.6632437270     0.1071190629
   11      H       0.2741903634     1.2394202668    -1.8574237175
   12      H      -0.5040657620    -1.5627368122    -1.5375834220
   13      H      -1.5847000957    -1.5969137625     0.6280525644
   14      H      -2.5040078480     0.4925801382     1.6736589670
   15      H      -3.1580331213     0.2303025078     0.0802342536
   16      H      -1.9489180588     1.4712287501     0.2911378099
 ----------------------------------------------------------------
 Nuclear Repulsion Energy =         218.02902775 hartrees
 There are       23 alpha and       23 beta electrons










































 Eigenvalues after right structure
 -0.00647368 -0.00000000 -0.00000000 -0.00000000 0.00000000 0.00000000 0.00000071 0.00156273 0.00167186 0.00322797 0.00634032 0.01049478 0.01685932 0.01959833 0.03611171 0.04387994 0.05032828 0.05837068 0.05952049 0.06638989 0.07108496 0.08589247 0.09178182 0.10843689 0.11062737 0.11941029 0.12156686 0.12597957 0.14330516 0.16342874 0.21523407 0.21743985 0.24255652 0.28216311 0.37572723 0.43905921 0.58443662 0.71272266 0.82301472 0.83396530 0.85302418 0.92260882 0.92678162 0.98571089 1.06456482 1.15700908 1.44196477 1.48342039
 Total job time:  19.88s(wall), 18.15s(cpu) 
 Thu Jul 22 14:48:50 2021

        *************************************************************
        *                                                           *
        *  Thank you very much for using Q-Chem.  Have a nice day.  *
        *                                                           *
        *************************************************************


