                  Welcome to Q-Chem
     A Quantum Leap Into The Future Of Chemistry


 Q-Chem 5.4 (devel), Q-Chem, Inc., Pleasanton, CA (2021)

 E. Epifanovsky,  A. T. B. Gilbert,  Xintian Feng,  Joonho Lee,  Yuezhi Mao,  
 N. Mardirossian,  P. Pokhilko,  A. White,  M. Wormit,  M. P. Coons,  
 A. L. Dempwolff,  Zhengting Gan,  D. Hait,  P. R. Horn,  L. D. Jacobson,  
 I. Kaliman,  J. Kussmann,  A. W. Lange,  Ka Un Lao,  D. S. Levine,  Jie Liu,  
 S. C. McKenzie,  A. F. Morrison,  K. Nanda,  F. Plasser,  D. R. Rehn,  
 M. L. Vidal,  Zhi-Qiang You,  Ying Zhu,  B. Alam,  B. Albrecht,  
 A. Aldossary,  E. Alguire,  J. H. Andersen,  D. Barton,  K. Begam,  A. Behn,  
 Y. A. Bernard,  E. J. Berquist,  H. Burton,  A. Carreras,  K. Carter-Fenk,  
 R. Chakraborty,  A. D. Chien,  K. D. Closser,  V. Cofer-Shabica,  
 S. Dasgupta,  Jia Deng,  M. de Wergifosse,  M. Diedenhofen,  Hainam Do,  
 S. Ehlert,  Po-Tung Fang,  S. Fatehi,  Qingguo Feng,  J. Gayvert,  
 Qinghui Ge,  G. Gidofalvi,  M. Goldey,  J. Gomes,  C. Gonzalez-Espinoza,  
 S. Gulania,  A. Gunina,  M. W. D. Hanson-Heine,  P. H. P. Harbach,  
 A. W. Hauser,  M. F. Herbst,  M. Hernandez Vera,  M. Hodecker,  
 Z. C. Holden,  S. Houck,  Xunkun Huang,  Kerwin Hui,  B. C. Huynh,  
 M. Ivanov,  Hyunjun Ji,  Hanjie Jiang,  B. Kaduk,  S. Kaehler,  
 K. Khistyaev,  Jaehoon Kim,  P. Klunzinger,  Z. Koczor-Benda,  
 Joong Hoon Koh,  D. Kosenkov,  L. Koulias,  T. Kowalczyk,  C. M. Krauter,  
 K. Kue,  A. Kunitsa,  T. Kus,  A. Landau,  K. V. Lawler,  D. Lefrancois,  
 S. Lehtola,  Rain Li,  Yi-Pei Li,  Jiashu Liang,  M. Liebenthal,  
 Hung-Hsuan Lin,  You-Sheng Lin,  Fenglai Liu,  Kuan-Yu Liu,  
 M. Loipersberger,  A. Luenser,  A. Manjanath,  P. Manohar,  E. Mansoor,  
 S. F. Manzer,  Shan-Ping Mao,  A. V. Marenich,  T. Markovich,  S. Mason,  
 S. A. Maurer,  P. F. McLaughlin,  M. F. S. J. Menger,  J.-M. Mewes,  
 S. A. Mewes,  P. Morgante,  J. W. Mullinax,  T. S. Nguyen-Beck,  
 K. J. Oosterbaan,  G. Paran,  Alexander C. Paul,  Suranjan K. Paul,  
 F. Pavosevic,  Zheng Pei,  S. Prager,  E. I. Proynov,  E. Ramos,  B. Rana,  
 A. E. Rask,  A. Rettig,  R. M. Richard,  F. Rob,  E. Rossomme,  T. Scheele,  
 M. Scheurer,  M. Schneider,  N. Sergueev,  S. M. Sharada,  W. Skomorowski,  
 D. W. Small,  C. J. Stein,  Yu-Chuan Su,  E. J. Sundstrom,  Zhen Tao,  
 J. Thirman,  T. Tsuchimochi,  N. M. Tubman,  S. P. Veccham,  O. Vydrov,  
 J. Wenzel,  J. Witte,  A. Yamada,  Kun Yao,  S. Yeganeh,  S. R. Yost,  
 A. Zech,  Igor Ying Zhang,  Xing Zhang,  Yu Zhang,  D. Zuev,  
 A. Aspuru-Guzik,  A. T. Bell,  N. A. Besley,  K. B. Bravaya,  B. R. Brooks,  
 D. Casanova,  Jeng-Da Chai,  S. Coriani,  C. J. Cramer,  
 A. E. DePrince, III,  R. A. DiStasio Jr.,  A. Dreuw,  B. D. Dunietz,  
 T. R. Furlani,  W. A. Goddard III,  S. Grimme,  S. Hammes-Schiffer,  
 T. Head-Gordon,  W. J. Hehre,  Chao-Ping Hsu,  T.-C. Jagau,  Yousung Jung,  
 A. Klamt,  Jing Kong,  D. S. Lambrecht,  WanZhen Liang,  N. J. Mayhall,  
 C. W. McCurdy,  J. B. Neaton,  C. Ochsenfeld,  J. A. Parkhill,  R. Peverati,  
 V. A. Rassolov,  Yihan Shao,  L. V. Slipchenko,  T. Stauch,  R. P. Steele,  
 J. E. Subotnik,  A. J. W. Thom,  A. Tkatchenko,  D. G. Truhlar,  
 T. Van Voorhis,  T. A. Wesolowski,  K. B. Whaley,  H. L. Woodcock III,  
 P. M. Zimmerman,  S. Faraji,  P. M. W. Gill,  M. Head-Gordon,  
 J. M. Herbert,  A. I. Krylov

 Contributors to earlier versions of Q-Chem not listed above: 
 R. D. Adamson,  B. Austin,  R. Baer,  J. Baker,  G. J. O. Beran,  
 K. Brandhorst,  S. T. Brown,  E. F. C. Byrd,  A. K. Chakraborty,  
 G. K. L. Chan,  Chun-Min Chang,  Yunqing Chen,  C.-L. Cheng,  
 Siu Hung Chien,  D. M. Chipman,  D. L. Crittenden,  H. Dachsel,  
 R. J. Doerksen,  A. D. Dutoi,  R. G. Edgar,  J. Fosso-Tande,  
 L. Fusti-Molnar,  D. Ghosh,  A. Ghysels,  A. Golubeva-Zadorozhnaya,  
 J. Gonthier,  M. S. Gordon,  S. R. Gwaltney,  G. Hawkins,  J. E. Herr,  
 A. Heyden,  S. Hirata,  E. G. Hohenstein,  G. Kedziora,  F. J. Keil,  
 C. Kelley,  Jihan Kim,  R. A. King,  R. Z. Khaliullin,  P. P. Korambath,  
 W. Kurlancheek,  A. Laurent,  A. M. Lee,  M. S. Lee,  S. V. Levchenko,  
 Ching Yeh Lin,  D. Liotard,  E. Livshits,  R. C. Lochan,  I. Lotan,  
 L. A. Martinez-Martinez,  P. E. Maslen,  N. Nair,  D. P. O'Neill,  
 D. Neuhauser,  E. Neuscamman,  C. M. Oana,  R. Olivares-Amaya,  R. Olson,  
 T. M. Perrine,  B. Peters,  P. A. Pieniazek,  A. Prociuk,  Y. M. Rhee,  
 J. Ritchie,  M. A. Rohrdanz,  E. Rosta,  N. J. Russ,  H. F. Schaefer III,  
 M. W. Schmidt,  N. E. Schultz,  S. Sharma,  N. Shenvi,  C. D. Sherrill,  
 A. C. Simmonett,  A. Sodt,  T. Stein,  D. Stuck,  K. S. Thanthiriwatte,  
 V. Vanovschi,  L. Vogt,  Tao Wang,  A. Warshel,  M. A. Watson,  
 C. F. Williams,  Q. Wu,  X. Xu,  Jun Yang,  W. Zhang,  Yan Zhao

 Please cite Q-Chem as follows:
 Y. Shao et al., Mol. Phys. 113, 184-215 (2015)
 DOI: 10.1080/00268976.2014.952696

 Q-Chem 5.4.0 for Intel X86 EM64T Linux

 Parts of Q-Chem use Armadillo 9.800.1 (Horizon Scraper).
 http://arma.sourceforge.net/

Compilation information
-----------------------

 SVN revision             | 37201
 SVN branch               | trunk
 Last SVN revision        | 37201
 Last SVN author          | xfeng
 Hostname                 | cheetah
 User                     | qcdevops
 System                   | Linux-4.4.104-18.44-default
 Processor                | x86_64
 Compiler                 | Intel
 C compiler version       | 17.0.5.20170817
 CXX compiler version     | 17.0.5.20170817
 Fortran compiler version | 17.0.5.20170817
 Configuration time       | 2021-07-21 08:51:16


 Q-Chem begins on Fri Jul 23 06:02:01 2021  

 Host: 
0

     Scratch files written to /scratch/ericb/fsm//
 Processing $rem in /sw/qchem/archive/r37201/config/preferences:
 Processing $rem in /dftman/home/ericb/.qchemrc:
 Now reading second FSM geometry

 Checking the input file for inconsistencies... 	...done.

--------------------------------------------------------------
User input:
--------------------------------------------------------------
$molecule
0 1
C      2.7240725446   -0.4545996598   -0.1402942876
C      1.7200425977    0.6854451324   -0.1808016141
C      0.4069365660    0.6162631922   -0.0857643483
C     -0.4066969470   -0.6163224339    0.0860356860
C     -1.7200380028   -0.6855789094    0.1810954689
C     -2.7241642982    0.4543961968    0.1408007273
H      3.4219287035   -0.3104198345    0.6820726189
H      3.3046895530   -0.4756569932   -1.0603643944
H      2.2481955465   -1.4199269224   -0.0167118522
H      2.1720984296    1.6638850130   -0.3042097249
H     -0.1487352588    1.5432074425   -0.1361672007
H      0.1490816410   -1.5432060546    0.1363935284
H     -2.1721312464   -1.6640184598    0.3043537430
H     -3.3048364866    0.4751998063    1.0608409523
H     -3.4219610290    0.3103451163   -0.6816381831
H     -2.2483645753    1.4197932475    0.0174791986
****
C     -1.9114264300   -0.8715469047   -0.0366485340
C     -0.6016127469   -0.2138436104   -0.5083727320
C     -0.5064773120    1.3098075822   -0.4180300718
C      0.5061615625    1.3098952038    0.4176594439
C      0.6014663201   -0.2137785552    0.5081767074
C      1.9114373323   -0.8713843429    0.0367353388
H     -1.7911160197   -1.9487902102    0.0377024574
H     -2.7140226817   -0.6674441561   -0.7400218001
H     -2.2064007544   -0.4916340469    0.9369186763
H     -0.3238300812   -0.6117149184   -1.4855048593
H     -1.0915688335    2.0854271920   -0.8936487442
H      1.0921293712    2.0844913792    0.8938749964
H      0.3235824606   -0.6115782756    1.4853112623
H      1.7912455687   -1.9486468340   -0.0375216476
H      2.7139077102   -0.6671275667    0.7402083043
H      2.2065174469   -0.4915425225   -0.9368268341
$end

$rem
method = hf
basis = sto-3g
jobtype = fsm
fsm_nnode = 10
fsm_ngrad = 3
fsm_mode = 2
fsm_opt_mode = 2
$end
--------------------------------------------------------------
 ----------------------------------------------------------------
             Standard Nuclear Orientation (Angstroms)
    I     Atom           X                Y                Z
 ----------------------------------------------------------------
    1      C       2.7240725446    -0.4545996598    -0.1402942876
    2      C       1.7200425977     0.6854451324    -0.1808016141
    3      C       0.4069365660     0.6162631922    -0.0857643483
    4      C      -0.4066969470    -0.6163224339     0.0860356860
    5      C      -1.7200380028    -0.6855789094     0.1810954689
    6      C      -2.7241642982     0.4543961968     0.1408007273
    7      H       3.4219287035    -0.3104198345     0.6820726189
    8      H       3.3046895530    -0.4756569932    -1.0603643944
    9      H       2.2481955465    -1.4199269224    -0.0167118522
   10      H       2.1720984296     1.6638850130    -0.3042097249
   11      H      -0.1487352588     1.5432074425    -0.1361672007
   12      H       0.1490816410    -1.5432060546     0.1363935284
   13      H      -2.1721312464    -1.6640184598     0.3043537430
   14      H      -3.3048364866     0.4751998063     1.0608409523
   15      H      -3.4219610290     0.3103451163    -0.6816381831
   16      H      -2.2483645753     1.4197932475     0.0174791986
 ----------------------------------------------------------------
 Nuclear Repulsion Energy =         213.29885198 hartrees
 There are       23 alpha and       23 beta electrons
 Requested basis set is STO-3G
 There are 22 shells and 40 basis functions

 Total QAlloc Memory Limit   2000 MB
 Mega-Array Size       188 MB
 MEM_STATIC part       192 MB
 beginning FSman 

*******************************************
*******************************************
******** Starting FSM Calculation *********
*******************************************
*******************************************
-FSM parameters:
 Maximum displacement of each coordinate during optimization (Angstrom)      0.05
 Maximum optimization steps for each new node                                3
 The scaling factor for optimization (hartrees/Angstrom^2)                   1.75
 The number of LST interpolations used for reparameterization                100
-Aligning product structure to maximum coincidence with the reactant structure
 Total R --> P Distance 6.544047
 New node interpolation distace (Angstroms): 0.65
-Performing force calculation on reactant structure in state:0
 ----------------------------------------------------------------
             Standard Nuclear Orientation (Angstroms)
    I     Atom           X                Y                Z
 ----------------------------------------------------------------
    1      C       2.7240725446    -0.4545996598    -0.1402942876
    2      C       1.7200425977     0.6854451324    -0.1808016141
    3      C       0.4069365660     0.6162631922    -0.0857643483
    4      C      -0.4066969470    -0.6163224339     0.0860356860
    5      C      -1.7200380028    -0.6855789094     0.1810954689
    6      C      -2.7241642982     0.4543961968     0.1408007273
    7      H       3.4219287035    -0.3104198345     0.6820726189
    8      H       3.3046895530    -0.4756569932    -1.0603643944
    9      H       2.2481955465    -1.4199269224    -0.0167118522
   10      H       2.1720984296     1.6638850130    -0.3042097249
   11      H      -0.1487352588     1.5432074425    -0.1361672007
   12      H       0.1490816410    -1.5432060546     0.1363935284
   13      H      -2.1721312464    -1.6640184598     0.3043537430
   14      H      -3.3048364866     0.4751998063     1.0608409523
   15      H      -3.4219610290     0.3103451163    -0.6816381831
   16      H      -2.2483645753     1.4197932475     0.0174791986
 ----------------------------------------------------------------
 Nuclear Repulsion Energy =         213.29885198 hartrees
 There are       23 alpha and       23 beta electrons
 Requested basis set is STO-3G
 There are 22 shells and 40 basis functions
 A cutoff of  1.0D-11 yielded    241 shell pairs
 There are       838 function pairs
 Smallest overlap matrix eigenvalue = 1.79E-01

 Scale SEOQF with 1.000000e-01/1.000000e-01/1.000000e+00

 Standard Electronic Orientation quadrupole field applied
 Nucleus-field energy     =     0.0000000044 hartrees
 Guess from superposition of atomic densities
 Warning:  Energy on first SCF cycle will be non-variational
 SAD guess density has 46.000000 electrons

 -----------------------------------------------------------------------
  General SCF calculation program by
  Eric Jon Sundstrom, Paul Horn, Yuezhi Mao, Dmitri Zuev, Alec White,
  David Stuck, Shaama M.S., Shane Yost, Joonho Lee, David Small,
  Daniel Levine, Susi Lehtola, Hugh Burton, Evgeny Epifanovsky,
  Bang C. Huynh
 -----------------------------------------------------------------------
 Hartree-Fock
 A restricted SCF calculation will be
 performed using DIIS
 SCF converges when DIIS error is below 1.0e-08
 ---------------------------------------
  Cycle       Energy         DIIS error
 ---------------------------------------
    1    -229.5077622411      1.72e-01  
    2    -230.1475403495      1.03e-02  
    3    -230.1848606874      2.69e-03  
    4    -230.1874799115      4.73e-04  
    5    -230.1875424390      1.11e-04  
    6    -230.1875460366      2.39e-05  
    7    -230.1875464765      3.40e-06  
    8    -230.1875464834      7.46e-07  
    9    -230.1875464837      2.10e-07  
   10    -230.1875464837      2.93e-08  
   11    -230.1875464839      3.06e-09  Convergence criterion met
 ---------------------------------------
 SCF time:   CPU 0.32s  wall 0.00s 
 SCF   energy in the final basis set =     -230.1875464839
 Total energy in the final basis set =     -230.1875464839
 
 --------------------------------------------------------------
 
                    Orbital Energies (a.u.)
 --------------------------------------------------------------
 
 Alpha MOs
 -- Occupied --
-11.0419 -11.0419 -11.0218 -11.0217 -11.0176 -11.0174  -1.0435  -0.9945
 -0.9110  -0.8701  -0.7363  -0.6591  -0.6212  -0.5607  -0.5383  -0.5372
 -0.5348  -0.4859  -0.4741  -0.4681  -0.4037  -0.3767  -0.2542
 -- Virtual --
  0.2601   0.4231   0.5703   0.6459   0.6623   0.6675   0.6858   0.7234
  0.7237   0.7276   0.7285   0.7663   0.7749   0.9269   0.9336   1.0602
  1.1316
 --------------------------------------------------------------
 
          Ground-State Mulliken Net Atomic Charges

     Atom                 Charge (a.u.)
  ----------------------------------------
      1 C                    -0.187177
      2 C                    -0.050192
      3 C                    -0.072721
      4 C                    -0.072698
      5 C                    -0.050174
      6 C                    -0.187185
      7 H                     0.065861
      8 H                     0.065860
      9 H                     0.065747
     10 H                     0.055016
     11 H                     0.057596
     12 H                     0.057589
     13 H                     0.055007
     14 H                     0.065862
     15 H                     0.065863
     16 H                     0.065747
  ----------------------------------------
  Sum of atomic charges =     0.000000

 -----------------------------------------------------------------
                    Cartesian Multipole Moments
 -----------------------------------------------------------------
    Charge (ESU x 10^10)
                 0.0000
    Dipole Moment (Debye)
         X      -0.0001      Y       0.0000      Z       0.0000
       Tot       0.0001
    Quadrupole Moments (Debye-Ang)
        XX     -33.7410     XY      -0.0186     YY     -35.1509
        XZ      -0.2395     YZ      -0.2043     ZZ     -37.2828
    Octopole Moments (Debye-Ang^2)
       XXX      -0.0050    XXY       0.0017    XYY      -0.0003
       YYY       0.0085    XXZ      -0.0059    XYZ      -0.0000
       YYZ      -0.0067    XZZ      -0.0008    YZZ       0.0025
       ZZZ      -0.0206
    Hexadecapole Moments (Debye-Ang^3)
      XXXX    -908.8716   XXXY      11.7222   XXYY    -181.1112
      XYYY       8.9450   YYYY    -150.5746   XXXZ      28.4623
      XXYZ       1.6422   XYYZ       9.1249   YYYZ       3.5334
      XXZZ    -157.5001   XYZZ       0.9422   YYZZ     -36.2372
      XZZZ      28.4893   YZZZ       5.7937   ZZZZ     -48.6419
 -----------------------------------------------------------------
 Calculating analytic gradient of the SCF energy
 Gradient of SCF Energy
            1           2           3           4           5           6
    1  -0.0000239  -0.0004231   0.0003573   0.0000285   0.0000602   0.0000020
    2   0.0000467   0.0000024  -0.0000098   0.0000206  -0.0000284  -0.0000540
    3  -0.0000056   0.0000481  -0.0000454   0.0000130  -0.0000240   0.0000134
            7           8           9          10          11          12
    1   0.0000093   0.0000145   0.0000013   0.0000571   0.0000553  -0.0000294
    2  -0.0000026  -0.0000064   0.0000336  -0.0000404  -0.0000336   0.0000441
    3   0.0000127  -0.0000161  -0.0000012  -0.0000092   0.0000089  -0.0000049
           13          14          15          16
    1  -0.0000801  -0.0000156  -0.0000080  -0.0000053
    2   0.0000543   0.0000102   0.0000016  -0.0000382
    3   0.0000036   0.0000144  -0.0000114   0.0000036
 Max gradient component =       4.231E-04
 RMS gradient           =       8.528E-05
 Gradient time:  CPU 0.11 s  wall 0.11 s
-Performing force calculation on product structure in state0
 ----------------------------------------------------------------
             Standard Nuclear Orientation (Angstroms)
    I     Atom           X                Y                Z
 ----------------------------------------------------------------
    1      C       1.9173228510    -0.3182759276     0.6010533447
    2      C       0.6974592340     0.3652304809    -0.0435092762
    3      C       0.4834054003     0.1551473650    -1.5430997351
    4      C      -0.6820417569    -0.4343608706    -1.4088334765
    5      C      -0.6922247674    -0.3581520318     0.1185651666
    6      C      -1.8242185626     0.4487428404     0.7805599564
    7      H       1.8563252131    -0.2628451995     1.6844104080
    8      H       2.8361211012     0.1696040286     0.2874683474
    9      H       1.9714213086    -1.3641215691     0.3139000833
   10      H       0.6620802736     1.4124561639     0.2603306149
   11      H       1.1032977688     0.4158272519    -2.3903956913
   12      H      -1.4067304594    -0.8411362376    -2.1012920280
   13      H      -0.6034632319    -1.3306154941     0.6050753921
   14      H      -1.6190737760     0.5957533032     1.8373277527
   15      H      -2.7702624338    -0.0776440962     0.6885189981
   16      H      -1.9293004248     1.4231958719     0.3130404610
 ----------------------------------------------------------------
 Nuclear Repulsion Energy =         231.67725345 hartrees
 There are       23 alpha and       23 beta electrons
 Applying Cartesian multipole field
    Component          Value
    ---------          -----
     (2,0,0)        1.00000E-11
     (0,2,0)        2.00000E-11
     (0,0,2)       -3.00000E-10
 Nucleus-field energy     =    -0.0000000492 hartrees
 Requested basis set is STO-3G
 There are 22 shells and 40 basis functions
 A cutoff of  1.0D-11 yielded    244 shell pairs
 There are       847 function pairs
 Smallest overlap matrix eigenvalue = 1.64E-01
 Guess from superposition of atomic densities
 Warning:  Energy on first SCF cycle will be non-variational
 SAD guess density has 46.000000 electrons

 -----------------------------------------------------------------------
  General SCF calculation program by
  Eric Jon Sundstrom, Paul Horn, Yuezhi Mao, Dmitri Zuev, Alec White,
  David Stuck, Shaama M.S., Shane Yost, Joonho Lee, David Small,
  Daniel Levine, Susi Lehtola, Hugh Burton, Evgeny Epifanovsky,
  Bang C. Huynh
 -----------------------------------------------------------------------
 Hartree-Fock
 A restricted SCF calculation will be
 performed using DIIS
 SCF converges when DIIS error is below 1.0e-08
 ---------------------------------------
  Cycle       Energy         DIIS error
 ---------------------------------------
    1    -229.5048910743      1.70e-01  
    2    -230.1652554962      1.04e-02  
    3    -230.2028549212      2.74e-03  
    4    -230.2054424181      4.56e-04  
    5    -230.2055039861      2.76e-05  
    6    -230.2055042728      5.90e-06  
    7    -230.2055042875      1.08e-06  
    8    -230.2055042878      3.10e-07  
    9    -230.2055042878      1.11e-07  
   10    -230.2055042877      3.93e-08  
   11    -230.2055042877      1.05e-08  
   12    -230.2055042875      2.10e-09  Convergence criterion met
 ---------------------------------------
 SCF time:   CPU 0.35s  wall 1.00s 
 SCF   energy in the final basis set =     -230.2055042875
 Total energy in the final basis set =     -230.2055042875
 
 --------------------------------------------------------------
 
                    Orbital Energies (a.u.)
 --------------------------------------------------------------
 
 Alpha MOs
 -- Occupied --
-11.0426 -11.0422 -11.0333 -11.0333 -11.0085 -11.0074  -1.1052  -0.9468
 -0.9331  -0.7949  -0.7805  -0.6604  -0.6214  -0.5666  -0.5563  -0.5319
 -0.5228  -0.4909  -0.4507  -0.4406  -0.3850  -0.3792  -0.2999
 -- Virtual --
  0.3292   0.5593   0.5691   0.6220   0.6496   0.6833   0.6932   0.7016
  0.7351   0.7485   0.7509   0.7651   0.7742   0.7991   0.8362   0.8418
  1.1974
 --------------------------------------------------------------
 
          Ground-State Mulliken Net Atomic Charges

     Atom                 Charge (a.u.)
  ----------------------------------------
      1 C                    -0.182265
      2 C                    -0.026708
      3 C                    -0.073126
      4 C                    -0.073071
      5 C                    -0.026756
      6 C                    -0.182272
      7 H                     0.058707
      8 H                     0.059072
      9 H                     0.058333
     10 H                     0.049878
     11 H                     0.056129
     12 H                     0.056125
     13 H                     0.049855
     14 H                     0.058701
     15 H                     0.059070
     16 H                     0.058327
  ----------------------------------------
  Sum of atomic charges =     0.000000

 -----------------------------------------------------------------
                    Cartesian Multipole Moments
 -----------------------------------------------------------------
    Charge (ESU x 10^10)
                 0.0000
    Dipole Moment (Debye)
         X       0.0071      Y       0.0101      Z       0.1080
       Tot       0.1087
    Quadrupole Moments (Debye-Ang)
        XX     -36.0945     XY       0.5585     YY     -36.3826
        XZ      -0.0477     YZ      -0.0040     ZZ     -36.0270
    Octopole Moments (Debye-Ang^2)
       XXX       0.8026    XXY       0.2732    XYY       0.2711
       YYY       1.7889    XXZ       4.0367    XYZ      -0.7740
       YYZ       6.2831    XZZ       0.7633    YZZ       0.5423
       ZZZ      17.1208
    Hexadecapole Moments (Debye-Ang^3)
      XXXX    -430.6230   XXXY      20.1860   XXYY     -87.6697
      XYYY      13.4395   YYYY     -90.6726   XXXZ       4.0730
      XXYZ      -2.7466   XYYZ       2.0786   YYYZ      -9.6029
      XXZZ    -113.8469   XYZZ       8.0644   YYZZ     -60.6584
      XZZZ       3.5451   YZZZ      -8.5008   ZZZZ    -254.0046
 -----------------------------------------------------------------
 Calculating analytic gradient of the SCF energy
 Gradient of SCF Energy
            1           2           3           4           5           6
    1  -0.0000142  -0.0000245   0.0000765   0.0001223  -0.0000264  -0.0000140
    2  -0.0000022  -0.0000208   0.0000349   0.0000568   0.0000013  -0.0000079
    3   0.0000029  -0.0000160   0.0001183  -0.0001771   0.0000326   0.0000010
            7           8           9          10          11          12
    1  -0.0000009  -0.0000145  -0.0000007   0.0000071  -0.0000571  -0.0000686
    2  -0.0000008   0.0000038   0.0000022   0.0000027  -0.0000301  -0.0000271
    3   0.0000008  -0.0000037  -0.0000013   0.0000017  -0.0000434   0.0000823
           13          14          15          16
    1  -0.0000033   0.0000053   0.0000101   0.0000029
    2  -0.0000056  -0.0000016  -0.0000012  -0.0000045
    3   0.0000066  -0.0000014  -0.0000016  -0.0000018
 Max gradient component =       1.771E-04
 RMS gradient           =       4.400E-05
 Gradient time:  CPU 0.10 s  wall 0.10 s

STARTING FREEZING STRING ITERATION # 1
 The distance between the innermost nodes (Angstroms): 6.544
-Adding two new nodes
 The distance between the previous and current R_nodes (Angstroms): 0.6370
 The distance between the previous and current P_nodes (Angstroms): 0.6256
-Optimizing new reactant side node
 Using BFGS, step: 2 E_tol 0.0180
 max_steps 3, node_spacing 0.6544, sigma 0.7000
 ----------------------------------------------------------------
             Standard Nuclear Orientation (Angstroms)
    I     Atom           X                Y                Z
 ----------------------------------------------------------------
    1      C       2.7176389185    -0.4492671274    -0.0630266675
    2      C       1.7011194833     0.6716770601    -0.1234272291
    3      C       0.3813609081     0.5907088547    -0.2549948397
    4      C      -0.4056038928    -0.6239066951    -0.0846626933
    5      C      -1.6958378902    -0.6627313255     0.2313055062
    6      C      -2.7093962503     0.4623774674     0.2160333383
    7      H       3.3564026885    -0.3063260262     0.8056661740
    8      H       3.3463213435    -0.4327402721    -0.9502478812
    9      H       2.2700092136    -1.4315732663     0.0168240099
   10      H       2.1478774559     1.6573253967    -0.2130466853
   11      H      -0.1197954918     1.5222209846    -0.4773992307
   12      H       0.0727986764    -1.5868608602    -0.1953903289
   13      H      -2.1378166989    -1.6419090510     0.3893081956
   14      H      -3.2254156491     0.4924194394     1.1730575302
   15      H      -3.4499581017     0.2882269962    -0.5610671812
   16      H      -2.2674291659     1.4365547018     0.0507399290
 ----------------------------------------------------------------
 Nuclear Repulsion Energy =         213.76981950 hartrees
 There are       23 alpha and       23 beta electrons
 Applying Cartesian multipole field
    Component          Value
    ---------          -----
     (2,0,0)        1.00000E-11
     (0,2,0)        2.00000E-11
     (0,0,2)       -3.00000E-10
 Nucleus-field energy     =     0.0000000035 hartrees
 Requested basis set is STO-3G
 There are 22 shells and 40 basis functions
 A cutoff of  1.0D-11 yielded    243 shell pairs
 There are       846 function pairs
 Smallest overlap matrix eigenvalue = 1.80E-01
 Guess from superposition of atomic densities
 Warning:  Energy on first SCF cycle will be non-variational
 SAD guess density has 46.000000 electrons

 -----------------------------------------------------------------------
  General SCF calculation program by
  Eric Jon Sundstrom, Paul Horn, Yuezhi Mao, Dmitri Zuev, Alec White,
  David Stuck, Shaama M.S., Shane Yost, Joonho Lee, David Small,
  Daniel Levine, Susi Lehtola, Hugh Burton, Evgeny Epifanovsky,
  Bang C. Huynh
 -----------------------------------------------------------------------
 Hartree-Fock
 A restricted SCF calculation will be
 performed using DIIS
 SCF converges when DIIS error is below 1.0e-08
 ---------------------------------------
  Cycle       Energy         DIIS error
 ---------------------------------------
    1    -229.5285663227      1.72e-01  
    2    -230.1401988279      1.03e-02  
    3    -230.1772209100      2.67e-03  
    4    -230.1798401224      3.80e-04  
    5    -230.1798862418      8.77e-05  
    6    -230.1798890985      2.88e-05  
    7    -230.1798896350      4.10e-06  
    8    -230.1798896461      8.78e-07  
    9    -230.1798896467      2.32e-07  
   10    -230.1798896467      3.24e-08  
   11    -230.1798896469      5.74e-09  Convergence criterion met
 ---------------------------------------
 SCF time:   CPU 0.34s  wall 0.00s 
 SCF   energy in the final basis set =     -230.1798896469
 Total energy in the final basis set =     -230.1798896469
 
 --------------------------------------------------------------
 
                    Orbital Energies (a.u.)
 --------------------------------------------------------------
 
 Alpha MOs
 -- Occupied --
-11.0417 -11.0416 -11.0196 -11.0196 -11.0168 -11.0167  -1.0449  -0.9931
 -0.9137  -0.8683  -0.7359  -0.6587  -0.6179  -0.5645  -0.5390  -0.5388
 -0.5363  -0.4841  -0.4702  -0.4674  -0.4164  -0.3645  -0.2484
 -- Virtual --
  0.2569   0.4072   0.5921   0.6495   0.6695   0.6703   0.6938   0.7148
  0.7248   0.7298   0.7375   0.7668   0.7695   0.9231   0.9399   1.0619
  1.1119
 --------------------------------------------------------------
 
          Ground-State Mulliken Net Atomic Charges

     Atom                 Charge (a.u.)
  ----------------------------------------
      1 C                    -0.188734
      2 C                    -0.046953
      3 C                    -0.075045
      4 C                    -0.075029
      5 C                    -0.046966
      6 C                    -0.188755
      7 H                     0.064930
      8 H                     0.067615
      9 H                     0.065963
     10 H                     0.052017
     11 H                     0.060224
     12 H                     0.060218
     13 H                     0.052033
     14 H                     0.064934
     15 H                     0.067604
     16 H                     0.065944
  ----------------------------------------
  Sum of atomic charges =     0.000000

 -----------------------------------------------------------------
                    Cartesian Multipole Moments
 -----------------------------------------------------------------
    Charge (ESU x 10^10)
                 0.0000
    Dipole Moment (Debye)
         X      -0.0034      Y      -0.0049      Z      -0.0532
       Tot       0.0535
    Quadrupole Moments (Debye-Ang)
        XX     -33.9160     XY      -0.0320     YY     -35.0765
        XZ      -0.2216     YZ      -0.2007     ZZ     -37.1898
    Octopole Moments (Debye-Ang^2)
       XXX       0.1349    XXY       0.0734    XYY       0.0704
       YYY       0.0181    XXZ       0.2002    XYZ       0.2668
       YYZ      -0.1585    XZZ       0.0583    YZZ       0.1613
       ZZZ       1.5036
    Hexadecapole Moments (Debye-Ang^3)
      XXXX    -900.8283   XXXY      12.7869   XXYY    -179.4009
      XYYY       9.8900   YYYY    -148.1419   XXXZ      28.0085
      XXYZ       1.5902   XYYZ       9.0073   YYYZ       3.2588
      XXZZ    -156.3649   XYZZ       1.4565   YYZZ     -36.2253
      XZZZ      27.8484   YZZZ       5.3696   ZZZZ     -52.0369
 -----------------------------------------------------------------
 Calculating analytic gradient of the SCF energy
 Gradient of SCF Energy
            1           2           3           4           5           6
    1  -0.0013694   0.0134044  -0.0389779   0.0392234  -0.0110767  -0.0005005
    2   0.0015870  -0.0040689  -0.0153472   0.0151599   0.0077490  -0.0041938
    3  -0.0140085   0.0201900   0.0019378  -0.0051704   0.0201040  -0.0133386
            7           8           9          10          11          12
    1  -0.0033897  -0.0001939   0.0027185  -0.0007370   0.0082712  -0.0092602
    2   0.0017214  -0.0014367   0.0003936   0.0009535   0.0013466  -0.0026896
    3   0.0012658   0.0001973   0.0006999   0.0000978  -0.0078399  -0.0065192
           13          14          15          16
    1   0.0007184   0.0035154   0.0002345  -0.0025805
    2  -0.0008988  -0.0014567   0.0014124  -0.0002316
    3   0.0002764   0.0010902  -0.0001021   0.0011194
 Max gradient component =       3.922E-02
 RMS gradient           =       1.067E-02
 Gradient time:  CPU 0.10 s  wall 0.10 s
 ----------------------------------------------------------------
             Standard Nuclear Orientation (Angstroms)
    I     Atom           X                Y                Z
 ----------------------------------------------------------------
    1      C       2.7183482820    -0.4504327865    -0.0506247806
    2      C       1.6898071492     0.6748530889    -0.1381010942
    3      C       0.4122463996     0.6026873715    -0.2590185261
    4      C      -0.4370176333    -0.6362051366    -0.0830530653
    5      C      -1.6861964597    -0.6685828143     0.2165651416
    6      C      -2.7084540270     0.4658469335     0.2278324758
    7      H       3.3580734173    -0.3077890733     0.8063542123
    8      H       3.3466552658    -0.4309194990    -0.9487931715
    9      H       2.2676966227    -1.4319437329     0.0168534255
   10      H       2.1477665144     1.6565788845    -0.2112688337
   11      H      -0.1261270756     1.5203746696    -0.4768366817
   12      H       0.0791555399    -1.5850142197    -0.1958373223
   13      H      -2.1374475494    -1.6408670288     0.3907999475
   14      H      -3.2269675069     0.4939770278     1.1736861985
   15      H      -3.4501107185     0.2867330989    -0.5592601296
   16      H      -2.2651526680     1.4368993679     0.0503741907
 ----------------------------------------------------------------
 Nuclear Repulsion Energy =         213.92147685 hartrees
 There are       23 alpha and       23 beta electrons
 Applying Cartesian multipole field
    Component          Value
    ---------          -----
     (2,0,0)        1.00000E-11
     (0,2,0)        2.00000E-11
     (0,0,2)       -3.00000E-10
 Nucleus-field energy     =     0.0000000035 hartrees
 Requested basis set is STO-3G
 There are 22 shells and 40 basis functions
 A cutoff of  1.0D-11 yielded    243 shell pairs
 There are       846 function pairs
 Smallest overlap matrix eigenvalue = 1.67E-01
 Guess from superposition of atomic densities
 Warning:  Energy on first SCF cycle will be non-variational
 SAD guess density has 46.000000 electrons

 -----------------------------------------------------------------------
  General SCF calculation program by
  Eric Jon Sundstrom, Paul Horn, Yuezhi Mao, Dmitri Zuev, Alec White,
  David Stuck, Shaama M.S., Shane Yost, Joonho Lee, David Small,
  Daniel Levine, Susi Lehtola, Hugh Burton, Evgeny Epifanovsky,
  Bang C. Huynh
 -----------------------------------------------------------------------
 Hartree-Fock
 A restricted SCF calculation will be
 performed using DIIS
 SCF converges when DIIS error is below 1.0e-08
 ---------------------------------------
  Cycle       Energy         DIIS error
 ---------------------------------------
    1    -229.5906748974      1.75e-01  
    2    -230.1392920260      1.03e-02  
    3    -230.1763014326      2.67e-03  
    4    -230.1788247424      4.09e-04  
    5    -230.1788708513      8.57e-05  
    6    -230.1788729174      1.92e-05  
    7    -230.1788731601      3.03e-06  
    8    -230.1788731667      6.59e-07  
    9    -230.1788731672      1.60e-07  
   10    -230.1788731672      2.35e-08  
   11    -230.1788731672      4.08e-09  Convergence criterion met
 ---------------------------------------
 SCF time:   CPU 0.36s  wall 1.00s 
 SCF   energy in the final basis set =     -230.1788731672
 Total energy in the final basis set =     -230.1788731672
 
 --------------------------------------------------------------
 
                    Orbital Energies (a.u.)
 --------------------------------------------------------------
 
 Alpha MOs
 -- Occupied --
-11.0420 -11.0420 -11.0220 -11.0220 -11.0190 -11.0187  -1.0483  -0.9995
 -0.9104  -0.8773  -0.7324  -0.6559  -0.6219  -0.5656  -0.5403  -0.5363
 -0.5356  -0.4876  -0.4806  -0.4645  -0.4049  -0.3683  -0.2708
 -- Virtual --
  0.2787   0.4148   0.5689   0.6359   0.6523   0.6657   0.6834   0.7241
  0.7245   0.7336   0.7352   0.7664   0.7697   0.9286   0.9442   1.0940
  1.1697
 --------------------------------------------------------------
 
          Ground-State Mulliken Net Atomic Charges

     Atom                 Charge (a.u.)
  ----------------------------------------
      1 C                    -0.185378
      2 C                    -0.054027
      3 C                    -0.071575
      4 C                    -0.071623
      5 C                    -0.054005
      6 C                    -0.185363
      7 H                     0.066580
      8 H                     0.065230
      9 H                     0.065435
     10 H                     0.055040
     11 H                     0.058711
     12 H                     0.058746
     13 H                     0.055014
     14 H                     0.066552
     15 H                     0.065244
     16 H                     0.065418
  ----------------------------------------
  Sum of atomic charges =     0.000000

 -----------------------------------------------------------------
                    Cartesian Multipole Moments
 -----------------------------------------------------------------
    Charge (ESU x 10^10)
                 0.0000
    Dipole Moment (Debye)
         X      -0.0021      Y      -0.0033      Z      -0.0355
       Tot       0.0357
    Quadrupole Moments (Debye-Ang)
        XX     -33.8789     XY      -0.0317     YY     -35.0724
        XZ      -0.2231     YZ      -0.2015     ZZ     -37.1886
    Octopole Moments (Debye-Ang^2)
       XXX       0.1840    XXY       0.1053    XYY       0.0865
       YYY       0.0429    XXZ       0.4523    XYZ       0.3097
       YYZ      -0.0693    XZZ       0.0219    YZZ       0.1469
       ZZZ       1.5988
    Hexadecapole Moments (Debye-Ang^3)
      XXXX    -899.2837   XXXY      12.2574   XXYY    -179.2937
      XYYY       9.5746   YYYY    -149.5208   XXXZ      27.9792
      XXYZ       1.6007   XYYZ       8.9872   YYYZ       3.3438
      XXZZ    -156.2947   XYZZ       1.3048   YYZZ     -36.4545
      XZZZ      27.8733   YZZZ       5.4569   ZZZZ     -52.1241
 -----------------------------------------------------------------
 Calculating analytic gradient of the SCF energy
 Gradient of SCF Energy
            1           2           3           4           5           6
    1   0.0047302  -0.0602873   0.0637924  -0.0627553   0.0612366  -0.0040382
    2  -0.0028196  -0.0022996   0.0132270  -0.0112176   0.0028822   0.0038861
    3   0.0057273   0.0067048   0.0051548   0.0166549  -0.0023010   0.0055424
            7           8           9          10          11          12
    1  -0.0057792   0.0035016   0.0022222  -0.0007097   0.0013217  -0.0023151
    2  -0.0002738  -0.0007519   0.0008049   0.0008296   0.0025152  -0.0038534
    3  -0.0058384  -0.0065426  -0.0009661   0.0016412  -0.0076862  -0.0069826
           13          14          15          16
    1   0.0008167   0.0048777  -0.0043136  -0.0023007
    2  -0.0006596  -0.0008694  -0.0004185  -0.0009816
    3   0.0017401  -0.0064003  -0.0059766  -0.0004715
 Max gradient component =       6.379E-02
 RMS gradient           =       1.859E-02
 Gradient time:  CPU 0.10 s  wall 0.11 s
WARNING!!!!! energy has increased from optimization step!
 ----------------------------------------------------------------
             Standard Nuclear Orientation (Angstroms)
    I     Atom           X                Y                Z
 ----------------------------------------------------------------
    1      C       2.7157654950    -0.4489448260    -0.0530735458
    2      C       1.7204730498     0.6759992188    -0.1409326621
    3      C       0.3794197801     0.5957831874    -0.2626716173
    4      C      -0.4048582663    -0.6305230501    -0.0926238178
    5      C      -1.7172706567    -0.6699176387     0.2182950460
    6      C      -2.7061625211     0.4639013140     0.2254512250
    7      H       3.3606103853    -0.3076837681     0.8100422123
    8      H       3.3449332681    -0.4302599468    -0.9447802547
    9      H       2.2665013002    -1.4323791216     0.0175895866
   10      H       2.1478440872     1.6561602599    -0.2113517656
   11      H      -0.1266873311     1.5187711559    -0.4752300925
   12      H       0.0799119670    -1.5831636952    -0.1945719840
   13      H      -2.1374805375    -1.6403968850     0.3906078864
   14      H      -3.2289526759     0.4945830170     1.1775806036
   15      H      -3.4478850621     0.2867991440    -0.5554912713
   16      H      -2.2638867280     1.4374677341     0.0508324552
 ----------------------------------------------------------------
 Nuclear Repulsion Energy =         213.27236345 hartrees
 There are       23 alpha and       23 beta electrons
 Applying Cartesian multipole field
    Component          Value
    ---------          -----
     (2,0,0)        1.00000E-11
     (0,2,0)        2.00000E-11
     (0,0,2)       -3.00000E-10
 Nucleus-field energy     =     0.0000000035 hartrees
 Requested basis set is STO-3G
 There are 22 shells and 40 basis functions
 A cutoff of  1.0D-11 yielded    243 shell pairs
 There are       846 function pairs
 Smallest overlap matrix eigenvalue = 1.86E-01
 Guess from superposition of atomic densities
 Warning:  Energy on first SCF cycle will be non-variational
 SAD guess density has 46.000000 electrons

 -----------------------------------------------------------------------
  General SCF calculation program by
  Eric Jon Sundstrom, Paul Horn, Yuezhi Mao, Dmitri Zuev, Alec White,
  David Stuck, Shaama M.S., Shane Yost, Joonho Lee, David Small,
  Daniel Levine, Susi Lehtola, Hugh Burton, Evgeny Epifanovsky,
  Bang C. Huynh
 -----------------------------------------------------------------------
 Hartree-Fock
 A restricted SCF calculation will be
 performed using DIIS
 SCF converges when DIIS error is below 1.0e-08
 ---------------------------------------
  Cycle       Energy         DIIS error
 ---------------------------------------
    1    -229.4897706001      1.71e-01  
    2    -230.1389409206      1.03e-02  
    3    -230.1760688474      2.69e-03  
    4    -230.1787228713      4.70e-04  
    5    -230.1787886045      1.21e-04  
    6    -230.1787932881      3.08e-05  
    7    -230.1787940444      3.97e-06  
    8    -230.1787940557      8.05e-07  
    9    -230.1787940562      2.23e-07  
   10    -230.1787940562      3.03e-08  
   11    -230.1787940563      1.02e-08  
   12    -230.1787940562      4.08e-09  Convergence criterion met
 ---------------------------------------
 SCF time:   CPU 0.36s  wall 0.00s 
 SCF   energy in the final basis set =     -230.1787940562
 Total energy in the final basis set =     -230.1787940562
 
 --------------------------------------------------------------
 
                    Orbital Energies (a.u.)
 --------------------------------------------------------------
 
 Alpha MOs
 -- Occupied --
-11.0422 -11.0422 -11.0186 -11.0186 -11.0153 -11.0152  -1.0403  -0.9924
 -0.9133  -0.8645  -0.7380  -0.6609  -0.6179  -0.5640  -0.5393  -0.5378
 -0.5358  -0.4846  -0.4718  -0.4655  -0.4202  -0.3599  -0.2408
 -- Virtual --
  0.2515   0.4022   0.6025   0.6565   0.6683   0.6735   0.6959   0.7167
  0.7231   0.7280   0.7394   0.7689   0.7727   0.9275   0.9320   1.0460
  1.0874
 --------------------------------------------------------------
 
          Ground-State Mulliken Net Atomic Charges

     Atom                 Charge (a.u.)
  ----------------------------------------
      1 C                    -0.188821
      2 C                    -0.050418
      3 C                    -0.074473
      4 C                    -0.074459
      5 C                    -0.050435
      6 C                    -0.188835
      7 H                     0.065844
      8 H                     0.066558
      9 H                     0.066952
     10 H                     0.054727
     11 H                     0.059631
     12 H                     0.059636
     13 H                     0.054743
     14 H                     0.065836
     15 H                     0.066557
     16 H                     0.066954
  ----------------------------------------
  Sum of atomic charges =     0.000000

 -----------------------------------------------------------------
                    Cartesian Multipole Moments
 -----------------------------------------------------------------
    Charge (ESU x 10^10)
                 0.0000
    Dipole Moment (Debye)
         X      -0.0019      Y      -0.0028      Z      -0.0308
       Tot       0.0309
    Quadrupole Moments (Debye-Ang)
        XX     -33.8673     XY      -0.0339     YY     -35.0671
        XZ      -0.2244     YZ      -0.2038     ZZ     -37.2048
    Octopole Moments (Debye-Ang^2)
       XXX       0.2143    XXY       0.1164    XYY       0.0891
       YYY       0.0694    XXZ       0.5948    XYZ       0.2941
       YYZ       0.0182    XZZ       0.0246    YZZ       0.1589
       ZZZ       1.8723
    Hexadecapole Moments (Debye-Ang^3)
      XXXX    -904.1785   XXXY      12.3857   XXYY    -180.0083
      XYYY       9.0860   YYYY    -148.9397   XXXZ      28.1822
      XXYZ       1.5959   XYYZ       9.0799   YYYZ       3.3347
      XXZZ    -156.9078   XYZZ       1.2586   YYZZ     -36.4059
      XZZZ      28.0032   YZZZ       5.4348   ZZZZ     -52.2745
 -----------------------------------------------------------------
 Calculating analytic gradient of the SCF energy
 Gradient of SCF Energy
            1           2           3           4           5           6
    1  -0.0097264   0.0574981  -0.0644748   0.0642890  -0.0557018   0.0093079
    2   0.0041012   0.0048674  -0.0027158   0.0015178  -0.0015745  -0.0048329
    3  -0.0034703   0.0139633  -0.0016715  -0.0104369   0.0220945  -0.0039060
            7           8           9          10          11          12
    1  -0.0026025  -0.0001602   0.0030231  -0.0082925   0.0098514  -0.0106746
    2   0.0015112   0.0008448  -0.0013157  -0.0099220  -0.0046892   0.0037680
    3  -0.0003422  -0.0030412  -0.0003765   0.0023939  -0.0058468  -0.0053310
           13          14          15          16
    1   0.0084380   0.0025452  -0.0002547  -0.0030653
    2   0.0101861  -0.0015860  -0.0014002   0.0012398
    3  -0.0006227  -0.0003797  -0.0028279  -0.0001989
 Max gradient component =       6.447E-02
 RMS gradient           =       1.854E-02
 Gradient time:  CPU 0.10 s  wall 0.11 s
WARNING!!!!! energy has increased from optimization step!
 ----------------------------------------------------------------
             Standard Nuclear Orientation (Angstroms)
    I     Atom           X                Y                Z
 ----------------------------------------------------------------
    1      C       2.7157654950    -0.4489448260    -0.0530735458
    2      C       1.7204730498     0.6759992188    -0.1409326621
    3      C       0.3794197801     0.5957831874    -0.2626716173
    4      C      -0.4048582663    -0.6305230501    -0.0926238178
    5      C      -1.7172706567    -0.6699176387     0.2182950460
    6      C      -2.7061625211     0.4639013140     0.2254512250
    7      H       3.3606103853    -0.3076837681     0.8100422123
    8      H       3.3449332681    -0.4302599468    -0.9447802547
    9      H       2.2665013002    -1.4323791216     0.0175895866
   10      H       2.1478440872     1.6561602599    -0.2113517656
   11      H      -0.1266873311     1.5187711559    -0.4752300925
   12      H       0.0799119670    -1.5831636952    -0.1945719840
   13      H      -2.1374805375    -1.6403968850     0.3906078864
   14      H      -3.2289526759     0.4945830170     1.1775806036
   15      H      -3.4478850621     0.2867991440    -0.5554912713
   16      H      -2.2638867280     1.4374677341     0.0508324552
 ----------------------------------------------------------------
 Nuclear Repulsion Energy =         213.27236345 hartrees
 There are       23 alpha and       23 beta electrons
 Applying Cartesian multipole field
    Component          Value
    ---------          -----
     (2,0,0)        1.00000E-11
     (0,2,0)        2.00000E-11
     (0,0,2)       -3.00000E-10
 Nucleus-field energy     =     0.0000000035 hartrees
 Requested basis set is STO-3G
 There are 22 shells and 40 basis functions
 A cutoff of  1.0D-11 yielded    243 shell pairs
 There are       846 function pairs
 Smallest overlap matrix eigenvalue = 1.86E-01
 Guess from superposition of atomic densities
 Warning:  Energy on first SCF cycle will be non-variational
 SAD guess density has 46.000000 electrons

 -----------------------------------------------------------------------
  General SCF calculation program by
  Eric Jon Sundstrom, Paul Horn, Yuezhi Mao, Dmitri Zuev, Alec White,
  David Stuck, Shaama M.S., Shane Yost, Joonho Lee, David Small,
  Daniel Levine, Susi Lehtola, Hugh Burton, Evgeny Epifanovsky,
  Bang C. Huynh
 -----------------------------------------------------------------------
 Hartree-Fock
 A restricted SCF calculation will be
 performed using DIIS
 SCF converges when DIIS error is below 1.0e-08
 ---------------------------------------
  Cycle       Energy         DIIS error
 ---------------------------------------
    1    -229.4897706001      1.71e-01  
    2    -230.1389409206      1.03e-02  
    3    -230.1760688474      2.69e-03  
    4    -230.1787228713      4.70e-04  
    5    -230.1787886045      1.21e-04  
    6    -230.1787932881      3.08e-05  
    7    -230.1787940444      3.97e-06  
    8    -230.1787940557      8.05e-07  
    9    -230.1787940562      2.23e-07  
   10    -230.1787940562      3.03e-08  
   11    -230.1787940563      1.02e-08  
   12    -230.1787940562      4.08e-09  Convergence criterion met
 ---------------------------------------
 SCF time:   CPU 0.41s  wall 0.00s 
 SCF   energy in the final basis set =     -230.1787940562
 Total energy in the final basis set =     -230.1787940562
 
 --------------------------------------------------------------
 
                    Orbital Energies (a.u.)
 --------------------------------------------------------------
 
 Alpha MOs
 -- Occupied --
-11.0422 -11.0422 -11.0186 -11.0186 -11.0153 -11.0152  -1.0403  -0.9924
 -0.9133  -0.8645  -0.7380  -0.6609  -0.6179  -0.5640  -0.5393  -0.5378
 -0.5358  -0.4846  -0.4718  -0.4655  -0.4202  -0.3599  -0.2408
 -- Virtual --
  0.2515   0.4022   0.6025   0.6565   0.6683   0.6735   0.6959   0.7167
  0.7231   0.7280   0.7394   0.7689   0.7727   0.9275   0.9320   1.0460
  1.0874
 --------------------------------------------------------------
 
          Ground-State Mulliken Net Atomic Charges

     Atom                 Charge (a.u.)
  ----------------------------------------
      1 C                    -0.188821
      2 C                    -0.050418
      3 C                    -0.074473
      4 C                    -0.074459
      5 C                    -0.050435
      6 C                    -0.188835
      7 H                     0.065844
      8 H                     0.066558
      9 H                     0.066952
     10 H                     0.054727
     11 H                     0.059631
     12 H                     0.059636
     13 H                     0.054743
     14 H                     0.065836
     15 H                     0.066557
     16 H                     0.066954
  ----------------------------------------
  Sum of atomic charges =     0.000000

 -----------------------------------------------------------------
                    Cartesian Multipole Moments
 -----------------------------------------------------------------
    Charge (ESU x 10^10)
                 0.0000
    Dipole Moment (Debye)
         X      -0.0019      Y      -0.0028      Z      -0.0308
       Tot       0.0309
    Quadrupole Moments (Debye-Ang)
        XX     -33.8673     XY      -0.0339     YY     -35.0671
        XZ      -0.2244     YZ      -0.2038     ZZ     -37.2048
    Octopole Moments (Debye-Ang^2)
       XXX       0.2143    XXY       0.1164    XYY       0.0891
       YYY       0.0694    XXZ       0.5948    XYZ       0.2941
       YYZ       0.0182    XZZ       0.0246    YZZ       0.1589
       ZZZ       1.8723
    Hexadecapole Moments (Debye-Ang^3)
      XXXX    -904.1785   XXXY      12.3857   XXYY    -180.0083
      XYYY       9.0860   YYYY    -148.9397   XXXZ      28.1822
      XXYZ       1.5959   XYYZ       9.0799   YYYZ       3.3347
      XXZZ    -156.9078   XYZZ       1.2586   YYZZ     -36.4059
      XZZZ      28.0032   YZZZ       5.4348   ZZZZ     -52.2745
 -----------------------------------------------------------------
 Calculating analytic gradient of the SCF energy
 Gradient of SCF Energy
            1           2           3           4           5           6
    1  -0.0097264   0.0574981  -0.0644748   0.0642890  -0.0557018   0.0093079
    2   0.0041012   0.0048674  -0.0027158   0.0015178  -0.0015745  -0.0048329
    3  -0.0034703   0.0139633  -0.0016715  -0.0104369   0.0220945  -0.0039060
            7           8           9          10          11          12
    1  -0.0026025  -0.0001602   0.0030231  -0.0082925   0.0098514  -0.0106746
    2   0.0015112   0.0008448  -0.0013157  -0.0099220  -0.0046892   0.0037680
    3  -0.0003422  -0.0030412  -0.0003765   0.0023939  -0.0058468  -0.0053310
           13          14          15          16
    1   0.0084380   0.0025452  -0.0002547  -0.0030653
    2   0.0101861  -0.0015860  -0.0014002   0.0012398
    3  -0.0006227  -0.0003797  -0.0028279  -0.0001989
 Max gradient component =       6.447E-02
 RMS gradient           =       1.854E-02
 Gradient time:  CPU 0.15 s  wall 0.15 s
done with opt_step_by_gradient, Reactant, iter1
-Optimizing new product side node
 Using BFGS, step: 2 E_tol 0.0179578
 max_steps 3, node_spacing 0.6544047, sigma 0.7000000
 ----------------------------------------------------------------
             Standard Nuclear Orientation (Angstroms)
    I     Atom           X                Y                Z
 ----------------------------------------------------------------
    1      C       2.0199869206    -0.3386623951     0.5447791769
    2      C       0.8062899389     0.4138890201    -0.0172498288
    3      C       0.4701980453     0.2065322909    -1.4630986627
    4      C      -0.6576274590    -0.4736207501    -1.3227039994
    5      C      -0.7976206757    -0.4008324135     0.1678052763
    6      C      -1.9352981361     0.4588422116     0.7352265893
    7      H       2.0396716855    -0.2694656971     1.6287879677
    8      H       2.9424590925     0.0948622108     0.1683910115
    9      H       1.9969591476    -1.3874694976     0.2669044316
   10      H       0.8375142972     1.4639169549     0.2744096635
   11      H       0.9799561741     0.5963234293    -2.3309199324
   12      H      -1.2760315263    -1.0093852872    -2.0265491509
   13      H      -0.7764623977    -1.3771549779     0.6525815148
   14      H      -1.8096738904     0.5944752822     1.8057747962
   15      H      -2.8940546989    -0.0259974014     0.5730838654
   16      H      -1.9627529798     1.4364498452     0.2648403870
 ----------------------------------------------------------------
 Nuclear Repulsion Energy =         228.11976148 hartrees
 There are       23 alpha and       23 beta electrons
 Applying Cartesian multipole field
    Component          Value
    ---------          -----
     (2,0,0)        1.00000E-11
     (0,2,0)        2.00000E-11
     (0,0,2)       -3.00000E-10
 Nucleus-field energy     =    -0.0000000437 hartrees
 Requested basis set is STO-3G
 There are 22 shells and 40 basis functions
 A cutoff of  1.0D-11 yielded    244 shell pairs
 There are       847 function pairs
 Smallest overlap matrix eigenvalue = 1.71E-01
 Guess from superposition of atomic densities
 Warning:  Energy on first SCF cycle will be non-variational
 SAD guess density has 46.000000 electrons

 -----------------------------------------------------------------------
  General SCF calculation program by
  Eric Jon Sundstrom, Paul Horn, Yuezhi Mao, Dmitri Zuev, Alec White,
  David Stuck, Shaama M.S., Shane Yost, Joonho Lee, David Small,
  Daniel Levine, Susi Lehtola, Hugh Burton, Evgeny Epifanovsky,
  Bang C. Huynh
 -----------------------------------------------------------------------
 Hartree-Fock
 A restricted SCF calculation will be
 performed using DIIS
 SCF converges when DIIS error is below 1.0e-08
 ---------------------------------------
  Cycle       Energy         DIIS error
 ---------------------------------------
    1    -229.3555249580      1.66e-01  
    2    -230.1317246132      1.03e-02  
    3    -230.1698186450      2.74e-03  
    4    -230.1725269937      3.89e-04  
    5    -230.1725743502      3.19e-05  
    6    -230.1725748836      6.18e-06  
    7    -230.1725749112      1.88e-06  
    8    -230.1725749141      4.49e-07  
    9    -230.1725749142      1.42e-07  
   10    -230.1725749142      4.57e-08  
   11    -230.1725749141      1.17e-08  
   12    -230.1725749142      3.12e-09  Convergence criterion met
 ---------------------------------------
 SCF time:   CPU 0.36s  wall 1.00s 
 SCF   energy in the final basis set =     -230.1725749142
 Total energy in the final basis set =     -230.1725749142
 
 --------------------------------------------------------------
 
                    Orbital Energies (a.u.)
 --------------------------------------------------------------
 
 Alpha MOs
 -- Occupied --
-11.0406 -11.0401 -11.0363 -11.0363 -11.0067 -11.0057  -1.0829  -0.9554
 -0.9270  -0.7949  -0.7729  -0.6557  -0.6203  -0.5646  -0.5510  -0.5296
 -0.5250  -0.4900  -0.4600  -0.4476  -0.3989  -0.3275  -0.2897
 -- Virtual --
  0.3215   0.4145   0.6155   0.6411   0.6563   0.6875   0.6966   0.7003
  0.7325   0.7400   0.7537   0.7582   0.7724   0.7945   0.8270   0.8624
  1.1642
 --------------------------------------------------------------
 
          Ground-State Mulliken Net Atomic Charges

     Atom                 Charge (a.u.)
  ----------------------------------------
      1 C                    -0.184414
      2 C                    -0.028023
      3 C                    -0.071067
      4 C                    -0.071001
      5 C                    -0.028021
      6 C                    -0.184405
      7 H                     0.061407
      8 H                     0.060771
      9 H                     0.061664
     10 H                     0.046721
     11 H                     0.052911
     12 H                     0.052845
     13 H                     0.046653
     14 H                     0.061479
     15 H                     0.060800
     16 H                     0.061679
  ----------------------------------------
  Sum of atomic charges =     0.000000

 -----------------------------------------------------------------
                    Cartesian Multipole Moments
 -----------------------------------------------------------------
    Charge (ESU x 10^10)
                 0.0000
    Dipole Moment (Debye)
         X       0.0067      Y       0.0142      Z       0.1261
       Tot       0.1270
    Quadrupole Moments (Debye-Ang)
        XX     -35.6134     XY       0.8022     YY     -36.0938
        XZ      -0.1248     YZ      -0.0804     ZZ     -36.3278
    Octopole Moments (Debye-Ang^2)
       XXX       0.9504    XXY       0.3232    XYY       0.1945
       YYY       1.5932    XXZ       4.4974    XYZ      -0.9387
       YYZ       5.2937    XZZ       0.6985    YZZ       0.7246
       ZZZ      16.3882
    Hexadecapole Moments (Debye-Ang^3)
      XXXX    -472.7181   XXXY      19.2511   XXYY     -96.2402
      XYYY      13.2547   YYYY     -97.9726   XXXZ       6.0241
      XXYZ      -2.3718   XYYZ       2.8664   YYYZ      -7.9480
      XXZZ    -118.6512   XYZZ       7.8270   YYZZ     -57.2222
      XZZZ       5.9563   YZZZ      -7.5818   ZZZZ    -233.8832
 -----------------------------------------------------------------
 Calculating analytic gradient of the SCF energy
 Gradient of SCF Energy
            1           2           3           4           5           6
    1   0.0007130   0.0864234   0.0238317  -0.0202225  -0.0892398  -0.0010663
    2   0.0013589   0.0345753   0.0103142  -0.0064045  -0.0378274  -0.0018506
    3  -0.0028088  -0.0281039   0.0206097   0.0250841  -0.0095094  -0.0021663
            7           8           9          10          11          12
    1   0.0001638  -0.0005305   0.0000697   0.0043688  -0.0057729   0.0060392
    2   0.0004503  -0.0002891   0.0004422  -0.0003581   0.0067855  -0.0058640
    3  -0.0002312   0.0011955   0.0004862  -0.0071884   0.0036386   0.0040960
           13          14          15          16
    1  -0.0052676  -0.0002230   0.0006798   0.0000331
    2  -0.0009873  -0.0004789   0.0005003  -0.0003670
    3  -0.0065800  -0.0001063   0.0010480   0.0005363
 Max gradient component =       8.924E-02
 RMS gradient           =       2.115E-02
 Gradient time:  CPU 0.11 s  wall 0.11 s
 ----------------------------------------------------------------
             Standard Nuclear Orientation (Angstroms)
    I     Atom           X                Y                Z
 ----------------------------------------------------------------
    1      C       2.0229254383    -0.3400227095     0.5442896904
    2      C       0.7717912222     0.4000803750    -0.0038797645
    3      C       0.4592723199     0.2036810832    -1.4693248226
    4      C      -0.6478570651    -0.4720101107    -1.3306968049
    5      C      -0.7616964902    -0.3853438014     0.1737043498
    6      C      -1.9382863057     0.4601276248     0.7347766522
    7      H       2.0454160710    -0.2701318126     1.6270926101
    8      H       2.9459129091     0.0924830295     0.1640598397
    9      H       1.9976938861    -1.3884367192     0.2652917671
   10      H       0.8412581070     1.4654773556     0.2782683062
   11      H       0.9777181512     0.5996456698    -2.3300663714
   12      H      -1.2736100586    -1.0125531557    -2.0254382906
   13      H      -0.7796500989    -1.3778960615     0.6571934453
   14      H      -1.8155781180     0.5949095425     1.8047426440
   15      H      -2.8980823079    -0.0244221518     0.5688794476
   16      H      -1.9637147486     1.4371154270     0.2631703713
 ----------------------------------------------------------------
 Nuclear Repulsion Energy =         228.47303767 hartrees
 There are       23 alpha and       23 beta electrons
 Applying Cartesian multipole field
    Component          Value
    ---------          -----
     (2,0,0)        1.00000E-11
     (0,2,0)        2.00000E-11
     (0,0,2)       -3.00000E-10
 Nucleus-field energy     =    -0.0000000440 hartrees
 Requested basis set is STO-3G
 There are 22 shells and 40 basis functions
 A cutoff of  1.0D-11 yielded    244 shell pairs
 There are       847 function pairs
 Smallest overlap matrix eigenvalue = 1.64E-01
 Guess from superposition of atomic densities
 Warning:  Energy on first SCF cycle will be non-variational
 SAD guess density has 46.000000 electrons

 -----------------------------------------------------------------------
  General SCF calculation program by
  Eric Jon Sundstrom, Paul Horn, Yuezhi Mao, Dmitri Zuev, Alec White,
  David Stuck, Shaama M.S., Shane Yost, Joonho Lee, David Small,
  Daniel Levine, Susi Lehtola, Hugh Burton, Evgeny Epifanovsky,
  Bang C. Huynh
 -----------------------------------------------------------------------
 Hartree-Fock
 A restricted SCF calculation will be
 performed using DIIS
 SCF converges when DIIS error is below 1.0e-08
 ---------------------------------------
  Cycle       Energy         DIIS error
 ---------------------------------------
    1    -229.3498600418      1.67e-01  
    2    -230.1433372530      1.04e-02  
    3    -230.1818244935      2.76e-03  
    4    -230.1845533552      4.40e-04  
    5    -230.1846139317      3.30e-05  
    6    -230.1846144191      7.19e-06  
    7    -230.1846144464      1.82e-06  
    8    -230.1846144488      3.94e-07  
    9    -230.1846144488      8.39e-08  
   10    -230.1846144489      3.60e-08  
   11    -230.1846144488      1.10e-08  
   12    -230.1846144491      2.69e-09  Convergence criterion met
 ---------------------------------------
 SCF time:   CPU 0.38s  wall 0.00s 
 SCF   energy in the final basis set =     -230.1846144491
 Total energy in the final basis set =     -230.1846144491
 
 --------------------------------------------------------------
 
                    Orbital Energies (a.u.)
 --------------------------------------------------------------
 
 Alpha MOs
 -- Occupied --
-11.0439 -11.0435 -11.0355 -11.0354 -11.0065 -11.0054  -1.0898  -0.9497
 -0.9271  -0.7894  -0.7796  -0.6523  -0.6220  -0.5632  -0.5499  -0.5302
 -0.5245  -0.4866  -0.4527  -0.4440  -0.3891  -0.3551  -0.2952
 -- Virtual --
  0.3293   0.4556   0.6009   0.6224   0.6506   0.6789   0.6907   0.7010
  0.7233   0.7417   0.7478   0.7575   0.7672   0.7885   0.8145   0.8634
  1.1896
 --------------------------------------------------------------
 
          Ground-State Mulliken Net Atomic Charges

     Atom                 Charge (a.u.)
  ----------------------------------------
      1 C                    -0.183170
      2 C                    -0.022453
      3 C                    -0.074312
      4 C                    -0.074256
      5 C                    -0.022502
      6 C                    -0.183142
      7 H                     0.060249
      8 H                     0.060595
      9 H                     0.060092
     10 H                     0.044779
     11 H                     0.054216
     12 H                     0.054160
     13 H                     0.044747
     14 H                     0.060279
     15 H                     0.060614
     16 H                     0.060105
  ----------------------------------------
  Sum of atomic charges =     0.000000

 -----------------------------------------------------------------
                    Cartesian Multipole Moments
 -----------------------------------------------------------------
    Charge (ESU x 10^10)
                 0.0000
    Dipole Moment (Debye)
         X       0.0063      Y       0.0131      Z       0.1157
       Tot       0.1166
    Quadrupole Moments (Debye-Ang)
        XX     -35.6579     XY       0.8162     YY     -36.1487
        XZ      -0.1211     YZ      -0.0734     ZZ     -36.2999
    Octopole Moments (Debye-Ang^2)
       XXX       0.9508    XXY       0.3249    XYY       0.1928
       YYY       1.5730    XXZ       4.4881    XYZ      -0.9230
       YYZ       5.2212    XZZ       0.6754    YZZ       0.7042
       ZZZ      16.0631
    Hexadecapole Moments (Debye-Ang^3)
      XXXX    -468.8164   XXXY      20.2683   XXYY     -95.8123
      XYYY      14.5100   YYYY     -97.4723   XXXZ       5.7165
      XXYZ      -2.3907   XYYZ       2.8003   YYYZ      -8.0888
      XXZZ    -118.3499   XYZZ       8.2826   YYZZ     -57.2577
      XZZZ       5.7095   YZZZ      -7.7321   ZZZZ    -234.6124
 -----------------------------------------------------------------
 Calculating analytic gradient of the SCF energy
 Gradient of SCF Energy
            1           2           3           4           5           6
    1   0.0117971   0.0490820  -0.0057716   0.0080618  -0.0510994  -0.0117622
    2   0.0005775   0.0163016  -0.0079917   0.0102109  -0.0188109  -0.0003556
    3   0.0000268  -0.0188031   0.0150332   0.0123643  -0.0087966   0.0017574
            7           8           9          10          11          12
    1  -0.0004517   0.0029927  -0.0008087   0.0101103  -0.0055120   0.0056423
    2   0.0009672  -0.0018350   0.0009538   0.0109588   0.0071613  -0.0064917
    3  -0.0013979   0.0021292  -0.0002792  -0.0057329   0.0023146   0.0028905
           13          14          15          16
    1  -0.0106310   0.0002549  -0.0027008   0.0007964
    2  -0.0116433  -0.0012089   0.0022467  -0.0010407
    3  -0.0023136  -0.0011504   0.0021527  -0.0001951
 Max gradient component =       5.110E-02
 RMS gradient           =       1.268E-02
 Gradient time:  CPU 0.10 s  wall 0.10 s
 FSM gradient convergence criteria satisfied
 After opt distance between the previous and current R_nodes (Angstroms): 0.6370
 After opt distance between the previous and current P_nodes (Angstroms): 0.6256
-Printing perpgrad.txt, Vfile.txt, and stringfile.txt

STARTING FREEZING STRING ITERATION # 2
 The distance between the innermost nodes (Angstroms): 5.497
-Adding two new nodes
 The distance between the previous and current R_nodes (Angstroms): 0.6394
 The distance between the previous and current P_nodes (Angstroms): 0.6573
-Optimizing new reactant side node
 Using BFGS, step: 3 E_tol 0.0180
 max_steps 3, node_spacing 0.6544, sigma 0.7000
 ----------------------------------------------------------------
             Standard Nuclear Orientation (Angstroms)
    I     Atom           X                Y                Z
 ----------------------------------------------------------------
    1      C       2.6842339357    -0.4437055851     0.0197305429
    2      C       1.6672596111     0.6623217378    -0.0745126868
    3      C       0.3611888282     0.5684742258    -0.4369583637
    4      C      -0.4114917416    -0.6370482907    -0.2695629099
    5      C      -1.6575263171    -0.6454586894     0.2726802251
    6      C      -2.6667964094     0.4712675804     0.2929709085
    7      H       3.2734377170    -0.3089140748     0.9224001992
    8      H       3.3589429519    -0.3864177418    -0.8354026878
    9      H       2.2598057176    -1.4397324167     0.0468294517
   10      H       2.0880097809     1.6511331940    -0.1101190176
   11      H      -0.0865953017     1.4744209374    -0.8001581585
   12      H      -0.0051593952    -1.6004132803    -0.5139824520
   13      H      -2.0660591985    -1.6178576369     0.4808843589
   14      H      -3.1291316555     0.5151774299     1.2750729461
   15      H      -3.4484954430     0.2636148371    -0.4388953743
   16      H      -2.2549588410     1.4492700575     0.0766513920
 ----------------------------------------------------------------
 Nuclear Repulsion Energy =         213.92267018 hartrees
 There are       23 alpha and       23 beta electrons
 Applying Cartesian multipole field
    Component          Value
    ---------          -----
     (2,0,0)        1.00000E-11
     (0,2,0)        2.00000E-11
     (0,0,2)       -3.00000E-10
 Nucleus-field energy     =     0.0000000009 hartrees
 Requested basis set is STO-3G
 There are 22 shells and 40 basis functions
 A cutoff of  1.0D-11 yielded    243 shell pairs
 There are       846 function pairs
 Smallest overlap matrix eigenvalue = 1.87E-01
 Guess from superposition of atomic densities
 Warning:  Energy on first SCF cycle will be non-variational
 SAD guess density has 46.000000 electrons

 -----------------------------------------------------------------------
  General SCF calculation program by
  Eric Jon Sundstrom, Paul Horn, Yuezhi Mao, Dmitri Zuev, Alec White,
  David Stuck, Shaama M.S., Shane Yost, Joonho Lee, David Small,
  Daniel Levine, Susi Lehtola, Hugh Burton, Evgeny Epifanovsky,
  Bang C. Huynh
 -----------------------------------------------------------------------
 Hartree-Fock
 A restricted SCF calculation will be
 performed using DIIS
 SCF converges when DIIS error is below 1.0e-08
 ---------------------------------------
  Cycle       Energy         DIIS error
 ---------------------------------------
    1    -229.4844612249      1.70e-01  
    2    -230.1196932358      1.03e-02  
    3    -230.1564468579      2.67e-03  
    4    -230.1590620845      3.76e-04  
    5    -230.1591103914      7.94e-05  
    6    -230.1591135618      3.58e-05  
    7    -230.1591142573      5.03e-06  
    8    -230.1591142793      9.99e-07  
    9    -230.1591142802      2.73e-07  
   10    -230.1591142801      6.47e-08  
   11    -230.1591142802      2.75e-08  
   12    -230.1591142803      8.47e-09  Convergence criterion met
 ---------------------------------------
 SCF time:   CPU 0.34s  wall 0.00s 
 SCF   energy in the final basis set =     -230.1591142803
 Total energy in the final basis set =     -230.1591142803
 
 --------------------------------------------------------------
 
                    Orbital Energies (a.u.)
 --------------------------------------------------------------
 
 Alpha MOs
 -- Occupied --
-11.0425 -11.0425 -11.0164 -11.0163 -11.0149 -11.0148  -1.0416  -0.9900
 -0.9151  -0.8611  -0.7375  -0.6597  -0.6124  -0.5699  -0.5393  -0.5371
 -0.5362  -0.4824  -0.4729  -0.4706  -0.4257  -0.3346  -0.2410
 -- Virtual --
  0.2541   0.3639   0.6199   0.6533   0.6784   0.6802   0.7020   0.7227
  0.7249   0.7287   0.7448   0.7657   0.7741   0.9170   0.9386   1.0386
  1.0586
 --------------------------------------------------------------
 
          Ground-State Mulliken Net Atomic Charges

     Atom                 Charge (a.u.)
  ----------------------------------------
      1 C                    -0.188541
      2 C                    -0.049423
      3 C                    -0.074560
      4 C                    -0.074591
      5 C                    -0.049419
      6 C                    -0.188571
      7 H                     0.064592
      8 H                     0.068266
      9 H                     0.066972
     10 H                     0.051265
     11 H                     0.061442
     12 H                     0.061453
     13 H                     0.051306
     14 H                     0.064587
     15 H                     0.068258
     16 H                     0.066964
  ----------------------------------------
  Sum of atomic charges =     0.000000

 -----------------------------------------------------------------
                    Cartesian Multipole Moments
 -----------------------------------------------------------------
    Charge (ESU x 10^10)
                 0.0000
    Dipole Moment (Debye)
         X      -0.0066      Y      -0.0090      Z      -0.0955
       Tot       0.0961
    Quadrupole Moments (Debye-Ang)
        XX     -34.0530     XY      -0.0720     YY     -35.1233
        XZ      -0.1977     YZ      -0.1801     ZZ     -37.0344
    Octopole Moments (Debye-Ang^2)
       XXX       0.3328    XXY       0.1691    XYY       0.1414
       YYY       0.0796    XXZ       0.8072    XYZ       0.4670
       YYZ      -0.0536    XZZ       0.0889    YZZ       0.3005
       ZZZ       3.3269
    Hexadecapole Moments (Debye-Ang^3)
      XXXX    -874.9911   XXXY      13.0818   XXYY    -175.0793
      XYYY      10.2158   YYYY    -146.5062   XXXZ      26.6204
      XXYZ       1.3908   XYYZ       8.6868   YYYZ       2.8473
      XXZZ    -154.3098   XYZZ       1.7826   YYZZ     -37.0110
      XZZZ      26.5860   YZZZ       4.4966   ZZZZ     -62.5396
 -----------------------------------------------------------------
 Calculating analytic gradient of the SCF energy
 Gradient of SCF Energy
            1           2           3           4           5           6
    1  -0.0065340   0.0586649  -0.0890269   0.0871489  -0.0527888   0.0041376
    2   0.0049031  -0.0012087  -0.0209819   0.0174352   0.0100931  -0.0083731
    3  -0.0185293   0.0450610  -0.0114226  -0.0264671   0.0511039  -0.0179101
            7           8           9          10          11          12
    1  -0.0051517   0.0010800   0.0041806  -0.0079365   0.0142705  -0.0157265
    2   0.0031383  -0.0010407  -0.0005012  -0.0073499  -0.0070268   0.0052672
    3   0.0002712  -0.0019747   0.0005886   0.0011606  -0.0103578  -0.0096075
           13          14          15          16
    1   0.0079499   0.0051364  -0.0013557  -0.0040487
    2   0.0074539  -0.0030784   0.0006465   0.0006234
    3  -0.0011704   0.0001760  -0.0019687   0.0010469
 Max gradient component =       8.903E-02
 RMS gradient           =       2.499E-02
 Gradient time:  CPU 0.10 s  wall 0.10 s
 ----------------------------------------------------------------
             Standard Nuclear Orientation (Angstroms)
    I     Atom           X                Y                Z
 ----------------------------------------------------------------
    1      C       2.6808468916    -0.4445704532     0.0393926157
    2      C       1.6744870684     0.6686066739    -0.1178855459
    3      C       0.3824879672     0.5829702195    -0.4372311270
    4      C      -0.4326890133    -0.6512431214    -0.2653186265
    5      C      -1.6703862660    -0.6594895606     0.2333167103
    6      C      -2.6608007910     0.4757475829     0.3114471133
    7      H       3.2781817436    -0.3116441799     0.9291840894
    8      H       3.3556744667    -0.3821972524    -0.8271809512
    9      H       2.2544938027    -1.4407789857     0.0474396856
   10      H       2.0886766138     1.6515228565    -0.1066222612
   11      H      -0.0967072272     1.4745580444    -0.7978102522
   12      H       0.0052690072    -1.6003022654    -0.5128020113
   13      H      -2.0661737856    -1.6175545744     0.4842099989
   14      H      -3.1328653299     0.5191404471     1.2817435158
   15      H      -3.4441625248     0.2609793819    -0.4305679420
   16      H      -2.2496683618     1.4503872035     0.0763134261
 ----------------------------------------------------------------
 Nuclear Repulsion Energy =         213.73172808 hartrees
 There are       23 alpha and       23 beta electrons
 Applying Cartesian multipole field
    Component          Value
    ---------          -----
     (2,0,0)        1.00000E-11
     (0,2,0)        2.00000E-11
     (0,0,2)       -3.00000E-10
 Nucleus-field energy     =     0.0000000009 hartrees
 Requested basis set is STO-3G
 There are 22 shells and 40 basis functions
 A cutoff of  1.0D-11 yielded    243 shell pairs
 There are       846 function pairs
 Smallest overlap matrix eigenvalue = 1.83E-01
 Guess from superposition of atomic densities
 Warning:  Energy on first SCF cycle will be non-variational
 SAD guess density has 46.000000 electrons

 -----------------------------------------------------------------------
  General SCF calculation program by
  Eric Jon Sundstrom, Paul Horn, Yuezhi Mao, Dmitri Zuev, Alec White,
  David Stuck, Shaama M.S., Shane Yost, Joonho Lee, David Small,
  Daniel Levine, Susi Lehtola, Hugh Burton, Evgeny Epifanovsky,
  Bang C. Huynh
 -----------------------------------------------------------------------
 Hartree-Fock
 A restricted SCF calculation will be
 performed using DIIS
 SCF converges when DIIS error is below 1.0e-08
 ---------------------------------------
  Cycle       Energy         DIIS error
 ---------------------------------------
    1    -229.5060935118      1.71e-01  
    2    -230.1300399420      1.03e-02  
    3    -230.1667787367      2.68e-03  
    4    -230.1693286457      4.65e-04  
    5    -230.1693895489      1.10e-04  
    6    -230.1693932798      2.74e-05  
    7    -230.1693938470      4.22e-06  
    8    -230.1693938626      9.02e-07  
    9    -230.1693938633      2.34e-07  
   10    -230.1693938632      3.98e-08  
   11    -230.1693938634      1.25e-08  
   12    -230.1693938634      4.63e-09  Convergence criterion met
 ---------------------------------------
 SCF time:   CPU 0.52s  wall 0.00s 
 SCF   energy in the final basis set =     -230.1693938634
 Total energy in the final basis set =     -230.1693938634
 
 --------------------------------------------------------------
 
                    Orbital Energies (a.u.)
 --------------------------------------------------------------
 
 Alpha MOs
 -- Occupied --
-11.0427 -11.0427 -11.0178 -11.0178 -11.0150 -11.0148  -1.0410  -0.9935
 -0.9118  -0.8670  -0.7361  -0.6587  -0.6166  -0.5695  -0.5401  -0.5354
 -0.5347  -0.4860  -0.4744  -0.4714  -0.4207  -0.3397  -0.2519
 -- Virtual --
  0.2693   0.3726   0.6157   0.6553   0.6577   0.6656   0.6908   0.7228
  0.7270   0.7386   0.7440   0.7632   0.7749   0.9251   0.9478   1.0431
  1.0913
 --------------------------------------------------------------
 
          Ground-State Mulliken Net Atomic Charges

     Atom                 Charge (a.u.)
  ----------------------------------------
[...]
 Applying Cartesian multipole field
    Component          Value
    ---------          -----
     (2,0,0)        1.00000E-11
     (0,2,0)        2.00000E-11
     (0,0,2)       -3.00000E-10
 Nucleus-field energy     =    -0.0000000267 hartrees
 Requested basis set is STO-3G
 There are 22 shells and 40 basis functions
 A cutoff of  1.0D-11 yielded    243 shell pairs
 There are       846 function pairs
 Smallest overlap matrix eigenvalue = 1.81E-01
 Guess from superposition of atomic densities
 Warning:  Energy on first SCF cycle will be non-variational
 SAD guess density has 46.000000 electrons

 -----------------------------------------------------------------------
  General SCF calculation program by
  Eric Jon Sundstrom, Paul Horn, Yuezhi Mao, Dmitri Zuev, Alec White,
  David Stuck, Shaama M.S., Shane Yost, Joonho Lee, David Small,
  Daniel Levine, Susi Lehtola, Hugh Burton, Evgeny Epifanovsky,
  Bang C. Huynh
 -----------------------------------------------------------------------
 Hartree-Fock
 A restricted SCF calculation will be
 performed using DIIS
 SCF converges when DIIS error is below 1.0e-08
 ---------------------------------------
  Cycle       Energy         DIIS error
 ---------------------------------------
    1    -229.1251128676      1.61e-01  
    2    -229.9635431648      1.01e-02  
    3    -230.0024391780      2.77e-03  
    4    -230.0055381965      4.75e-04  
    5    -230.0056127836      9.06e-05  
    6    -230.0056195781      5.13e-05  
    7    -230.0056214665      1.71e-05  
    8    -230.0056218716      5.91e-06  
    9    -230.0056219228      1.96e-06  
   10    -230.0056219294      5.66e-07  
   11    -230.0056219295      2.39e-07  
   12    -230.0056219295      4.94e-08  
   13    -230.0056219295      1.25e-08  
   14    -230.0056219294      3.03e-09  Convergence criterion met
 ---------------------------------------
 SCF time:   CPU 0.41s  wall 1.00s 
 SCF   energy in the final basis set =     -230.0056219294
 Total energy in the final basis set =     -230.0056219294
 
 --------------------------------------------------------------
 
                    Orbital Energies (a.u.)
 --------------------------------------------------------------
 
 Alpha MOs
 -- Occupied --
-11.0440 -11.0440 -11.0314 -11.0311 -11.0039 -11.0033  -1.0602  -0.9573
 -0.9112  -0.8233  -0.7477  -0.6489  -0.6184  -0.5682  -0.5351  -0.5155
 -0.5152  -0.4733  -0.4711  -0.4380  -0.4298  -0.2522  -0.2471
 -- Virtual --
  0.2131   0.2826   0.6229   0.6381   0.6703   0.6709   0.6795   0.6835
  0.7268   0.7328   0.7572   0.7583   0.7721   0.7946   0.8409   0.8931
  1.0908
 --------------------------------------------------------------
 
          Ground-State Mulliken Net Atomic Charges

     Atom                 Charge (a.u.)
  ----------------------------------------
      1 C                    -0.172595
      2 C                    -0.024591
      3 C                    -0.072422
      4 C                    -0.072383
      5 C                    -0.024660
      6 C                    -0.172525
      7 H                     0.061966
      8 H                     0.061381
      9 H                     0.063178
     10 H                     0.030011
     11 H                     0.053219
     12 H                     0.053086
     13 H                     0.029945
     14 H                     0.061916
     15 H                     0.061335
     16 H                     0.063139
  ----------------------------------------
  Sum of atomic charges =     0.000000

 -----------------------------------------------------------------
                    Cartesian Multipole Moments
 -----------------------------------------------------------------
    Charge (ESU x 10^10)
                -0.0000
    Dipole Moment (Debye)
         X      -0.0034      Y       0.0002      Z      -0.0395
       Tot       0.0397
    Quadrupole Moments (Debye-Ang)
        XX     -34.0765     XY       0.3421     YY     -35.8747
        XZ      -0.2093     YZ      -0.1116     ZZ     -36.7671
    Octopole Moments (Debye-Ang^2)
       XXX       1.0305    XXY       0.4337    XYY       0.0514
       YYY       0.7528    XXZ       4.4015    XYZ      -0.5526
       YYZ       1.6493    XZZ       0.2695    YZZ       0.8669
       ZZZ      10.4967
    Hexadecapole Moments (Debye-Ang^3)
      XXXX    -578.7866   XXXY      17.8301   XXYY    -121.9785
      XYYY      16.8063   YYYY    -124.5877   XXXZ      11.3743
      XXYZ      -0.8428   XYYZ       4.6214   YYYZ      -3.0035
      XXZZ    -127.6387   XYZZ       6.5601   YYZZ     -48.1256
      XZZZ      12.3911   YZZZ      -3.7707   ZZZZ    -169.8258
 -----------------------------------------------------------------
 Calculating analytic gradient of the SCF energy
 Gradient of SCF Energy
            1           2           3           4           5           6
    1   0.0173120   0.0079808   0.0145665  -0.0122054  -0.0091462  -0.0167454
    2  -0.0058341  -0.0040774  -0.0019315   0.0038041   0.0026305   0.0068670
    3   0.0038502  -0.0066133   0.0111153   0.0122793  -0.0057651   0.0046887
            7           8           9          10          11          12
    1   0.0039888   0.0229272   0.0056573   0.0090922  -0.0118499   0.0130076
    2   0.0011137  -0.0046559   0.0068692  -0.0011176   0.0053345  -0.0030767
    3  -0.0073408  -0.0053808  -0.0017296  -0.0101698   0.0120598   0.0107990
           13          14          15          16
    1  -0.0101839  -0.0049719  -0.0235745  -0.0058552
    2  -0.0004370  -0.0024377   0.0039237  -0.0069751
    3  -0.0089569  -0.0062834  -0.0029658   0.0004130
 Max gradient component =       2.357E-02
 RMS gradient           =       9.178E-03
 Gradient time:  CPU 0.10 s  wall 0.11 s
 ----------------------------------------------------------------
             Standard Nuclear Orientation (Angstroms)
    I     Atom           X                Y                Z
 ----------------------------------------------------------------
    1      C       2.2811288907    -0.4113740889     0.3668583102
    2      C       1.0196725449     0.5215795345     0.0997156048
    3      C       0.3825215619     0.3932140024    -1.1775112318
    4      C      -0.5317213579    -0.6095958082    -1.0209798828
    5      C      -0.9942199737    -0.4863346438     0.3304140735
    6      C      -2.2203944823     0.4977338391     0.5809879437
    7      H       2.6369743208    -0.3189895434     1.3842781067
    8      H       3.1464260585    -0.1197888103    -0.2687041718
    9      H       2.0956927008    -1.4515279547     0.1445579535
   10      H       1.3806795936     1.5360367549     0.3194916574
   11      H       0.4788463259     1.1051180792    -1.9812624065
   12      H      -0.7314049677    -1.4541933567    -1.6605838717
   13      H      -1.3111552314    -1.4357131409     0.7834916748
   14      H      -2.4363815830     0.6041105434     1.6358272510
   15      H      -3.1594818273     0.1029890055     0.1336890543
   16      H      -2.0794505588     1.4746783674     0.1434882821
 ----------------------------------------------------------------
 Nuclear Repulsion Energy =         221.09137708 hartrees
 There are       23 alpha and       23 beta electrons
 Applying Cartesian multipole field
    Component          Value
    ---------          -----
     (2,0,0)        1.00000E-11
     (0,2,0)        2.00000E-11
     (0,0,2)       -3.00000E-10
 Nucleus-field energy     =    -0.0000000265 hartrees
 Requested basis set is STO-3G
 There are 22 shells and 40 basis functions
 A cutoff of  1.0D-11 yielded    243 shell pairs
 There are       846 function pairs
 Smallest overlap matrix eigenvalue = 1.81E-01
 Guess from superposition of atomic densities
 Warning:  Energy on first SCF cycle will be non-variational
 SAD guess density has 46.000000 electrons

 -----------------------------------------------------------------------
  General SCF calculation program by
  Eric Jon Sundstrom, Paul Horn, Yuezhi Mao, Dmitri Zuev, Alec White,
  David Stuck, Shaama M.S., Shane Yost, Joonho Lee, David Small,
  Daniel Levine, Susi Lehtola, Hugh Burton, Evgeny Epifanovsky,
  Bang C. Huynh
 -----------------------------------------------------------------------
 Hartree-Fock
 A restricted SCF calculation will be
 performed using DIIS
 SCF converges when DIIS error is below 1.0e-08
 ---------------------------------------
  Cycle       Energy         DIIS error
 ---------------------------------------
    1    -229.1325514742      1.62e-01  
    2    -229.9628163659      1.01e-02  
    3    -230.0016786202      2.77e-03  
    4    -230.0047624101      4.66e-04  
    5    -230.0048337692      8.68e-05  
    6    -230.0048396008      4.86e-05  
    7    -230.0048410663      1.50e-05  
    8    -230.0048413349      5.12e-06  
    9    -230.0048413677      1.72e-06  
   10    -230.0048413726      6.03e-07  
   11    -230.0048413728      2.51e-07  
   12    -230.0048413728      5.44e-08  
   13    -230.0048413729      1.38e-08  
   14    -230.0048413728      3.03e-09  Convergence criterion met
 ---------------------------------------
 SCF time:   CPU 0.52s  wall 1.00s 
 SCF   energy in the final basis set =     -230.0048413728
 Total energy in the final basis set =     -230.0048413728
 
 --------------------------------------------------------------
 
                    Orbital Energies (a.u.)
 --------------------------------------------------------------
 
 Alpha MOs
 -- Occupied --
-11.0443 -11.0443 -11.0306 -11.0303 -11.0041 -11.0036  -1.0597  -0.9581
 -0.9113  -0.8243  -0.7471  -0.6490  -0.6182  -0.5688  -0.5353  -0.5157
 -0.5151  -0.4736  -0.4721  -0.4393  -0.4300  -0.2497  -0.2470
 -- Virtual --
  0.2114   0.2824   0.6252   0.6387   0.6699   0.6704   0.6815   0.6845
  0.7275   0.7325   0.7570   0.7581   0.7723   0.7974   0.8437   0.8950
  1.0887
 --------------------------------------------------------------
 
          Ground-State Mulliken Net Atomic Charges

     Atom                 Charge (a.u.)
  ----------------------------------------
      1 C                    -0.172398
      2 C                    -0.025293
      3 C                    -0.072183
      4 C                    -0.072148
      5 C                    -0.025369
      6 C                    -0.172325
      7 H                     0.062133
      8 H                     0.061587
      9 H                     0.063417
     10 H                     0.029837
     11 H                     0.053054
     12 H                     0.052929
     13 H                     0.029766
     14 H                     0.062081
     15 H                     0.061538
     16 H                     0.063376
  ----------------------------------------
  Sum of atomic charges =     0.000000

 -----------------------------------------------------------------
                    Cartesian Multipole Moments
 -----------------------------------------------------------------
    Charge (ESU x 10^10)
                -0.0000
    Dipole Moment (Debye)
         X      -0.0032      Y       0.0004      Z      -0.0378
       Tot       0.0380
    Quadrupole Moments (Debye-Ang)
        XX     -34.0603     XY       0.3188     YY     -35.8796
        XZ      -0.2069     YZ      -0.1078     ZZ     -36.7503
    Octopole Moments (Debye-Ang^2)
       XXX       1.0349    XXY       0.4362    XYY       0.0536
       YYY       0.7584    XXZ       4.4215    XYZ      -0.5492
       YYZ       1.6688    XZZ       0.2673    YZZ       0.8640
       ZZZ      10.5135
    Hexadecapole Moments (Debye-Ang^3)
      XXXX    -579.6737   XXXY      17.5781   XXYY    -122.2047
      XYYY      16.5653   YYYY    -124.9584   XXXZ      11.4465
      XXYZ      -0.8206   XYYZ       4.6444   YYYZ      -2.9520
      XXZZ    -127.6991   XYZZ       6.4802   YYZZ     -48.1275
      XZZZ      12.4589   YZZZ      -3.7071   ZZZZ    -169.3451
 -----------------------------------------------------------------
 Calculating analytic gradient of the SCF energy
 Gradient of SCF Energy
            1           2           3           4           5           6
    1   0.0170453   0.0066967   0.0142187  -0.0119747  -0.0077414  -0.0165099
    2  -0.0056648  -0.0050079  -0.0022028   0.0039040   0.0037305   0.0066584
    3   0.0036399  -0.0055233   0.0102531   0.0113464  -0.0050514   0.0044780
            7           8           9          10          11          12
    1   0.0039887   0.0225326   0.0057564   0.0077836  -0.0109302   0.0120362
    2   0.0011219  -0.0045042   0.0067818  -0.0016681   0.0046507  -0.0024663
    3  -0.0074088  -0.0054016  -0.0017581  -0.0092878   0.0116584   0.0104027
           13          14          15          16
    1  -0.0087756  -0.0049812  -0.0231870  -0.0059582
    2   0.0002533  -0.0024586   0.0037662  -0.0068942
    3  -0.0083727  -0.0063465  -0.0030100   0.0003816
 Max gradient component =       2.319E-02
 RMS gradient           =       8.817E-03
 Gradient time:  CPU 0.11 s  wall 0.12 s
 E1 = -230.0056219, E2 = -230.0048414, Emax = -230.0052183
 Iteration 5, Curvature = -0.5641953
 Curvature, final (in Hartree/Bohr^2) = -0.1579908
 ----------------------------------------------------------------
             Standard Nuclear Orientation (Angstroms)
    I     Atom           X                Y                Z
 ----------------------------------------------------------------
    1      C       2.2808357808    -0.4112792088     0.3667592689
    2      C       1.0167868700     0.5203232937     0.1015471863
    3      C       0.3822409328     0.3923599721    -1.1786121469
    4      C      -0.5315961891    -0.6089683476    -1.0222498942
    5      C      -0.9911363415    -0.4847948928     0.3315798704
    6      C      -2.2201174423     0.4976184065     0.5808684060
    7      H       2.6365877702    -0.3189487797     1.3842484205
    8      H       3.1463186943    -0.1195535421    -0.2686880601
    9      H       2.0957236414    -1.4514852876     0.1445760919
   10      H       1.3789328116     1.5351443104     0.3204077037
   11      H       0.4801393031     1.1042009401    -1.9821700530
   12      H      -0.7328136766    -1.4534376099    -1.6614641101
   13      H      -1.3093105096    -1.4346871944     0.7839895255
   14      H      -2.4359999851     0.6040601650     1.6357521377
   15      H      -3.1593717406     0.1027614719     0.1337345874
   16      H      -2.0794766823     1.4746405758     0.1435164930
 ----------------------------------------------------------------
 Nuclear Repulsion Energy =         221.11262892 hartrees
 There are       23 alpha and       23 beta electrons
 Requested basis set is STO-3G
 There are 22 shells and 40 basis functions
 Geometry Optimization Parameters
   NAtoms,    NIC,     NZ,  NCons,   NDum,   NFix, NCnnct, MaxDiis
       16      95       0       0       0       0       0       0


** GEOMETRY OPTIMIZATION IN DELOCALIZED INTERNAL COORDINATES **
   Searching for a Minimum

   Optimization Cycle:   1

                       Coordinates (Angstroms)
     ATOM                X               Y               Z
      1  C         2.2808357808   -0.4112792088    0.3667592689
      2  C         1.0167868700    0.5203232937    0.1015471863
      3  C         0.3822409328    0.3923599721   -1.1786121469
      4  C        -0.5315961891   -0.6089683476   -1.0222498942
      5  C        -0.9911363415   -0.4847948928    0.3315798704
      6  C        -2.2201174423    0.4976184065    0.5808684060
      7  H         2.6365877702   -0.3189487797    1.3842484205
      8  H         3.1463186943   -0.1195535421   -0.2686880601
      9  H         2.0957236414   -1.4514852876    0.1445760919
     10  H         1.3789328116    1.5351443104    0.3204077037
     11  H         0.4801393031    1.1042009401   -1.9821700530
     12  H        -0.7328136766   -1.4534376099   -1.6614641101
     13  H        -1.3093105096   -1.4346871944    0.7839895255
     14  H        -2.4359999851    0.6040601650    1.6357521377
     15  H        -3.1593717406    0.1027614719    0.1337345874
     16  H        -2.0794766823    1.4746405758    0.1435164930
   Point Group: c1    Number of degrees of freedom:    42


   Energy is   -230.004841373


 Attempting to generate delocalized internal coordinates
 Initial Hessian constructed with Jon Baker's OPTIMIZE code

 42 Hessian modes will be used to form the next step
  Hessian Eigenvalues:
     0.002000    0.002000    0.017767    0.017841    0.023811    0.023972
     0.027086    0.028148    0.028221    0.064633    0.064696    0.068720
     0.068741    0.123601    0.123649    0.156162    0.156533    0.160000
     0.160000    0.160000    0.160000    0.160000    0.160000    0.220292
     0.220326    0.233023    0.233052    0.242952    0.243320    0.323187
     0.323226    0.337369    0.337726    0.357543    0.357734    0.360357
     0.360375    0.362298    0.362414    0.402682    0.403475    0.520232

 Minimum search - taking simple RFO step
 Searching for Lamda that Minimizes Along All modes
 Value Taken    Lamda =  -0.18604401
 Calculated Step too Large.  Step scaled by  0.373488
 Step Taken.  Stepsize is  0.300000

                             Maximum     Tolerance    Cnvgd?
         Gradient           0.212467      0.000300      NO
         Displacement       0.258181      0.001200      NO
         Energy change     *********      0.000001      NO


 New Cartesian Coordinates Obtained by Inverse Iteration

 Displacement from previous Coordinates is:  1.900928
 ----------------------------------------------------------------
             Standard Nuclear Orientation (Angstroms)
    I     Atom           X                Y                Z
 ----------------------------------------------------------------
    1      C       2.0386536161    -0.4041936567     0.4434404621
    2      C       0.8200560285     0.5019336693     0.0267482737
    3      C       0.3466149384     0.3941230726    -1.3215020316
    4      C      -0.5152403257    -0.6374707135    -1.1654543673
    5      C      -0.8061781834    -0.4830199301     0.2295734863
    6      C      -1.9699598262     0.5018806949     0.6249194102
    7      H       2.2442620520    -0.3291490626     1.5049673198
    8      H       2.9622163425    -0.0712082724    -0.0638929484
    9      H       1.9050530117    -1.4442179024     0.1755639687
   10      H       1.1044560988     1.5223117170     0.3226232393
   11      H       0.4625067258     1.1313358444    -2.1026782363
   12      H      -0.7308718398    -1.5028106134    -1.7753273848
   13      H      -1.0368527873    -1.4250754558     0.7477038687
   14      H      -2.0315518232     0.6316380085     1.6993331180
   15      H      -2.9488550103     0.0911145461     0.3177762170
   16      H      -1.8865657809     1.4707623269     0.1500010318
 ----------------------------------------------------------------
 Nuclear Repulsion Energy =         228.65748712 hartrees
 There are       23 alpha and       23 beta electrons










































 Eigenvalues after right structure
 -0.17491370 -0.00000000 -0.00000000 -0.00000000 0.00000000 0.00000000 0.00000001 0.00104164 0.00106147 0.00147959 0.00208328 0.00620184 0.01522143 0.02283400 0.03408652 0.04119249 0.04903859 0.05456346 0.05806901 0.06406598 0.06884826 0.08770958 0.09420747 0.09647505 0.11113034 0.12249852 0.12371394 0.12490492 0.13263327 0.15027661 0.20738787 0.23623101 0.24916704 0.29616461 0.37336063 0.41393918 0.54804750 0.67541256 0.80680682 0.84809569 0.85138908 0.87679127 0.87791840 0.96870728 0.98760474 1.11599207 1.26800531 1.44695222
 Total job time:  26.05s(wall), 23.32s(cpu) 
 Fri Jul 23 06:02:27 2021

        *************************************************************
        *                                                           *
        *  Thank you very much for using Q-Chem.  Have a nice day.  *
        *                                                           *
        *************************************************************


