                  Welcome to Q-Chem
     A Quantum Leap Into The Future Of Chemistry


 Q-Chem 5.4 (devel), Q-Chem, Inc., Pleasanton, CA (2021)

 E. Epifanovsky,  A. T. B. Gilbert,  Xintian Feng,  Joonho Lee,  Yuezhi Mao,  
 N. Mardirossian,  P. Pokhilko,  A. White,  M. Wormit,  M. P. Coons,  
 A. L. Dempwolff,  Zhengting Gan,  D. Hait,  P. R. Horn,  L. D. Jacobson,  
 I. Kaliman,  J. Kussmann,  A. W. Lange,  Ka Un Lao,  D. S. Levine,  Jie Liu,  
 S. C. McKenzie,  A. F. Morrison,  K. Nanda,  F. Plasser,  D. R. Rehn,  
 M. L. Vidal,  Zhi-Qiang You,  Ying Zhu,  B. Alam,  B. Albrecht,  
 A. Aldossary,  E. Alguire,  J. H. Andersen,  D. Barton,  K. Begam,  A. Behn,  
 Y. A. Bernard,  E. J. Berquist,  H. Burton,  A. Carreras,  K. Carter-Fenk,  
 R. Chakraborty,  A. D. Chien,  K. D. Closser,  V. Cofer-Shabica,  
 S. Dasgupta,  Jia Deng,  M. de Wergifosse,  M. Diedenhofen,  Hainam Do,  
 S. Ehlert,  Po-Tung Fang,  S. Fatehi,  Qingguo Feng,  J. Gayvert,  
 Qinghui Ge,  G. Gidofalvi,  M. Goldey,  J. Gomes,  C. Gonzalez-Espinoza,  
 S. Gulania,  A. Gunina,  M. W. D. Hanson-Heine,  P. H. P. Harbach,  
 A. W. Hauser,  M. F. Herbst,  M. Hernandez Vera,  M. Hodecker,  
 Z. C. Holden,  S. Houck,  Xunkun Huang,  Kerwin Hui,  B. C. Huynh,  
 M. Ivanov,  Hyunjun Ji,  Hanjie Jiang,  B. Kaduk,  S. Kaehler,  
 K. Khistyaev,  Jaehoon Kim,  P. Klunzinger,  Z. Koczor-Benda,  
 Joong Hoon Koh,  D. Kosenkov,  L. Koulias,  T. Kowalczyk,  C. M. Krauter,  
 K. Kue,  A. Kunitsa,  T. Kus,  A. Landau,  K. V. Lawler,  D. Lefrancois,  
 S. Lehtola,  Rain Li,  Yi-Pei Li,  Jiashu Liang,  M. Liebenthal,  
 Hung-Hsuan Lin,  You-Sheng Lin,  Fenglai Liu,  Kuan-Yu Liu,  
 M. Loipersberger,  A. Luenser,  A. Manjanath,  P. Manohar,  E. Mansoor,  
 S. F. Manzer,  Shan-Ping Mao,  A. V. Marenich,  T. Markovich,  S. Mason,  
 S. A. Maurer,  P. F. McLaughlin,  M. F. S. J. Menger,  J.-M. Mewes,  
 S. A. Mewes,  P. Morgante,  J. W. Mullinax,  T. S. Nguyen-Beck,  
 K. J. Oosterbaan,  G. Paran,  Alexander C. Paul,  Suranjan K. Paul,  
 F. Pavosevic,  Zheng Pei,  S. Prager,  E. I. Proynov,  E. Ramos,  B. Rana,  
 A. E. Rask,  A. Rettig,  R. M. Richard,  F. Rob,  E. Rossomme,  T. Scheele,  
 M. Scheurer,  M. Schneider,  N. Sergueev,  S. M. Sharada,  W. Skomorowski,  
 D. W. Small,  C. J. Stein,  Yu-Chuan Su,  E. J. Sundstrom,  Zhen Tao,  
 J. Thirman,  T. Tsuchimochi,  N. M. Tubman,  S. P. Veccham,  O. Vydrov,  
 J. Wenzel,  J. Witte,  A. Yamada,  Kun Yao,  S. Yeganeh,  S. R. Yost,  
 A. Zech,  Igor Ying Zhang,  Xing Zhang,  Yu Zhang,  D. Zuev,  
 A. Aspuru-Guzik,  A. T. Bell,  N. A. Besley,  K. B. Bravaya,  B. R. Brooks,  
 D. Casanova,  Jeng-Da Chai,  S. Coriani,  C. J. Cramer,  
 A. E. DePrince, III,  R. A. DiStasio Jr.,  A. Dreuw,  B. D. Dunietz,  
 T. R. Furlani,  W. A. Goddard III,  S. Grimme,  S. Hammes-Schiffer,  
 T. Head-Gordon,  W. J. Hehre,  Chao-Ping Hsu,  T.-C. Jagau,  Yousung Jung,  
 A. Klamt,  Jing Kong,  D. S. Lambrecht,  WanZhen Liang,  N. J. Mayhall,  
 C. W. McCurdy,  J. B. Neaton,  C. Ochsenfeld,  J. A. Parkhill,  R. Peverati,  
 V. A. Rassolov,  Yihan Shao,  L. V. Slipchenko,  T. Stauch,  R. P. Steele,  
 J. E. Subotnik,  A. J. W. Thom,  A. Tkatchenko,  D. G. Truhlar,  
 T. Van Voorhis,  T. A. Wesolowski,  K. B. Whaley,  H. L. Woodcock III,  
 P. M. Zimmerman,  S. Faraji,  P. M. W. Gill,  M. Head-Gordon,  
 J. M. Herbert,  A. I. Krylov

 Contributors to earlier versions of Q-Chem not listed above: 
 R. D. Adamson,  B. Austin,  R. Baer,  J. Baker,  G. J. O. Beran,  
 K. Brandhorst,  S. T. Brown,  E. F. C. Byrd,  A. K. Chakraborty,  
 G. K. L. Chan,  Chun-Min Chang,  Yunqing Chen,  C.-L. Cheng,  
 Siu Hung Chien,  D. M. Chipman,  D. L. Crittenden,  H. Dachsel,  
 R. J. Doerksen,  A. D. Dutoi,  R. G. Edgar,  J. Fosso-Tande,  
 L. Fusti-Molnar,  D. Ghosh,  A. Ghysels,  A. Golubeva-Zadorozhnaya,  
 J. Gonthier,  M. S. Gordon,  S. R. Gwaltney,  G. Hawkins,  J. E. Herr,  
 A. Heyden,  S. Hirata,  E. G. Hohenstein,  G. Kedziora,  F. J. Keil,  
 C. Kelley,  Jihan Kim,  R. A. King,  R. Z. Khaliullin,  P. P. Korambath,  
 W. Kurlancheek,  A. Laurent,  A. M. Lee,  M. S. Lee,  S. V. Levchenko,  
 Ching Yeh Lin,  D. Liotard,  E. Livshits,  R. C. Lochan,  I. Lotan,  
 L. A. Martinez-Martinez,  P. E. Maslen,  N. Nair,  D. P. O'Neill,  
 D. Neuhauser,  E. Neuscamman,  C. M. Oana,  R. Olivares-Amaya,  R. Olson,  
 T. M. Perrine,  B. Peters,  P. A. Pieniazek,  A. Prociuk,  Y. M. Rhee,  
 J. Ritchie,  M. A. Rohrdanz,  E. Rosta,  N. J. Russ,  H. F. Schaefer III,  
 M. W. Schmidt,  N. E. Schultz,  S. Sharma,  N. Shenvi,  C. D. Sherrill,  
 A. C. Simmonett,  A. Sodt,  T. Stein,  D. Stuck,  K. S. Thanthiriwatte,  
 V. Vanovschi,  L. Vogt,  Tao Wang,  A. Warshel,  M. A. Watson,  
 C. F. Williams,  Q. Wu,  X. Xu,  Jun Yang,  W. Zhang,  Yan Zhao

 Please cite Q-Chem as follows:
 Y. Shao et al., Mol. Phys. 113, 184-215 (2015)
 DOI: 10.1080/00268976.2014.952696

 Q-Chem 5.4.0 for Intel X86 EM64T Linux

 Parts of Q-Chem use Armadillo 9.800.1 (Horizon Scraper).
 http://arma.sourceforge.net/

Compilation information
-----------------------

 SVN revision             | 36850
 SVN branch               | trunk
 Last SVN revision        | 36850
 Last SVN author          | jherbert
 Hostname                 | dellman5
 User                     | qcdevops
 System                   | Linux-3.10.0-862.3.2.el7.x86_64
 Processor                | x86_64
 Compiler                 | Intel
 C compiler version       | 17.0.5.20170817
 CXX compiler version     | 17.0.5.20170817
 Fortran compiler version | 17.0.5.20170817
 Configuration time       | 2021-06-01 13:15:38


 Q-Chem begins on Thu Jun 17 16:19:54 2021  

 Host: 
0

     Scratch files written to /scratch/ericb/fsm//
 Processing $rem in /sw/qchem/archive/r36850/config/preferences:
 Processing $rem in /dftman/home/ericb/.qchemrc:
 Now reading second FSM geometry

 Checking the input file for inconsistencies... 	...done.

--------------------------------------------------------------
User input:
--------------------------------------------------------------
$molecule
0 1
C      2.7240725446   -0.4545996598   -0.1402942876
C      1.7200425977    0.6854451324   -0.1808016141
C      0.4069365660    0.6162631922   -0.0857643483
C     -0.4066969470   -0.6163224339    0.0860356860
C     -1.7200380028   -0.6855789094    0.1810954689
C     -2.7241642982    0.4543961968    0.1408007273
H      3.4219287035   -0.3104198345    0.6820726189
H      3.3046895530   -0.4756569932   -1.0603643944
H      2.2481955465   -1.4199269224   -0.0167118522
H      2.1720984296    1.6638850130   -0.3042097249
H     -0.1487352588    1.5432074425   -0.1361672007
H      0.1490816410   -1.5432060546    0.1363935284
H     -2.1721312464   -1.6640184598    0.3043537430
H     -3.3048364866    0.4751998063    1.0608409523
H     -3.4219610290    0.3103451163   -0.6816381831
H     -2.2483645753    1.4197932475    0.0174791986
****
C     -1.9114264300   -0.8715469047   -0.0366485340
C     -0.6016127469   -0.2138436104   -0.5083727320
C     -0.5064773120    1.3098075822   -0.4180300718
C      0.5061615625    1.3098952038    0.4176594439
C      0.6014663201   -0.2137785552    0.5081767074
C      1.9114373323   -0.8713843429    0.0367353388
H     -1.7911160197   -1.9487902102    0.0377024574
H     -2.7140226817   -0.6674441561   -0.7400218001
H     -2.2064007544   -0.4916340469    0.9369186763
H     -0.3238300812   -0.6117149184   -1.4855048593
H     -1.0915688335    2.0854271920   -0.8936487442
H      1.0921293712    2.0844913792    0.8938749964
H      0.3235824606   -0.6115782756    1.4853112623
H      1.7912455687   -1.9486468340   -0.0375216476
H      2.7139077102   -0.6671275667    0.7402083043
H      2.2065174469   -0.4915425225   -0.9368268341
$end

$rem
method = hf
basis = sto-3g
jobtype = fsm
fsm_nnode = 10
fsm_ngrad = 3
fsm_mode = 2
fsm_opt_mode = 1
$end
--------------------------------------------------------------
 ----------------------------------------------------------------
             Standard Nuclear Orientation (Angstroms)
    I     Atom           X                Y                Z
 ----------------------------------------------------------------
    1      C       2.7240725446    -0.4545996598    -0.1402942876
    2      C       1.7200425977     0.6854451324    -0.1808016141
    3      C       0.4069365660     0.6162631922    -0.0857643483
    4      C      -0.4066969470    -0.6163224339     0.0860356860
    5      C      -1.7200380028    -0.6855789094     0.1810954689
    6      C      -2.7241642982     0.4543961968     0.1408007273
    7      H       3.4219287035    -0.3104198345     0.6820726189
    8      H       3.3046895530    -0.4756569932    -1.0603643944
    9      H       2.2481955465    -1.4199269224    -0.0167118522
   10      H       2.1720984296     1.6638850130    -0.3042097249
   11      H      -0.1487352588     1.5432074425    -0.1361672007
   12      H       0.1490816410    -1.5432060546     0.1363935284
   13      H      -2.1721312464    -1.6640184598     0.3043537430
   14      H      -3.3048364866     0.4751998063     1.0608409523
   15      H      -3.4219610290     0.3103451163    -0.6816381831
   16      H      -2.2483645753     1.4197932475     0.0174791986
 ----------------------------------------------------------------
 Nuclear Repulsion Energy =         213.29885198 hartrees
 There are       23 alpha and       23 beta electrons
 Requested basis set is STO-3G
 There are 22 shells and 40 basis functions

 Total QAlloc Memory Limit   2000 MB
 Mega-Array Size       188 MB
 MEM_STATIC part       192 MB
 beginning FSman 

*******************************************
*******************************************
******** Starting FSM Calculation *********
*******************************************
*******************************************
-FSM parameters:
 Maximum displacement of each coordinate during optimization (Angstrom)      0.05
 Maximum optimization steps for each new node                                3
 The scaling factor for optimization (hartrees/Angstrom^2)                   1.75
 The number of LST interpolations used for reparameterization                100
-Aligning product structure to maximum coincidence with the reactant structure
 Total R --> P Distance 6.544047
 New node interpolation distace (Angstroms): 0.65
-Performing force calculation on reactant structure in state:0
 ----------------------------------------------------------------
             Standard Nuclear Orientation (Angstroms)
    I     Atom           X                Y                Z
 ----------------------------------------------------------------
    1      C       2.7240725446    -0.4545996598    -0.1402942876
    2      C       1.7200425977     0.6854451324    -0.1808016141
    3      C       0.4069365660     0.6162631922    -0.0857643483
    4      C      -0.4066969470    -0.6163224339     0.0860356860
    5      C      -1.7200380028    -0.6855789094     0.1810954689
    6      C      -2.7241642982     0.4543961968     0.1408007273
    7      H       3.4219287035    -0.3104198345     0.6820726189
    8      H       3.3046895530    -0.4756569932    -1.0603643944
    9      H       2.2481955465    -1.4199269224    -0.0167118522
   10      H       2.1720984296     1.6638850130    -0.3042097249
   11      H      -0.1487352588     1.5432074425    -0.1361672007
   12      H       0.1490816410    -1.5432060546     0.1363935284
   13      H      -2.1721312464    -1.6640184598     0.3043537430
   14      H      -3.3048364866     0.4751998063     1.0608409523
   15      H      -3.4219610290     0.3103451163    -0.6816381831
   16      H      -2.2483645753     1.4197932475     0.0174791986
 ----------------------------------------------------------------
 Nuclear Repulsion Energy =         213.29885198 hartrees
 There are       23 alpha and       23 beta electrons
 Requested basis set is STO-3G
 There are 22 shells and 40 basis functions
 A cutoff of  1.0D-11 yielded    241 shell pairs
 There are       838 function pairs
 Smallest overlap matrix eigenvalue = 1.79E-01

 Scale SEOQF with 1.000000e-01/1.000000e-01/1.000000e+00

 Standard Electronic Orientation quadrupole field applied
 Nucleus-field energy     =     0.0000000044 hartrees
 Guess from superposition of atomic densities
 Warning:  Energy on first SCF cycle will be non-variational
 SAD guess density has 46.000000 electrons

 -----------------------------------------------------------------------
  General SCF calculation program by
  Eric Jon Sundstrom, Paul Horn, Yuezhi Mao, Dmitri Zuev, Alec White,
  David Stuck, Shaama M.S., Shane Yost, Joonho Lee, David Small,
  Daniel Levine, Susi Lehtola, Hugh Burton, Evgeny Epifanovsky,
  Bang C. Huynh
 -----------------------------------------------------------------------
 Hartree-Fock
 A restricted SCF calculation will be
 performed using DIIS
 SCF converges when DIIS error is below 1.0e-08
 ---------------------------------------
  Cycle       Energy         DIIS error
 ---------------------------------------
    1    -229.5077622411      1.72e-01  
    2    -230.1475403495      1.03e-02  
    3    -230.1848606874      2.69e-03  
    4    -230.1874799115      4.73e-04  
    5    -230.1875424390      1.11e-04  
    6    -230.1875460366      2.39e-05  
    7    -230.1875464765      3.40e-06  
    8    -230.1875464834      7.46e-07  
    9    -230.1875464837      2.10e-07  
   10    -230.1875464837      2.93e-08  
   11    -230.1875464839      3.06e-09  Convergence criterion met
 ---------------------------------------
 SCF time:   CPU 0.40s  wall 1.00s 
 SCF   energy in the final basis set =     -230.1875464839
 Total energy in the final basis set =     -230.1875464839
 
 --------------------------------------------------------------
 
                    Orbital Energies (a.u.)
 --------------------------------------------------------------
 
 Alpha MOs
 -- Occupied --
-11.0419 -11.0419 -11.0218 -11.0217 -11.0176 -11.0174  -1.0435  -0.9945
 -0.9110  -0.8701  -0.7363  -0.6591  -0.6212  -0.5607  -0.5383  -0.5372
 -0.5348  -0.4859  -0.4741  -0.4681  -0.4037  -0.3767  -0.2542
 -- Virtual --
  0.2601   0.4231   0.5703   0.6459   0.6623   0.6675   0.6858   0.7234
  0.7237   0.7276   0.7285   0.7663   0.7749   0.9269   0.9336   1.0602
  1.1316
 --------------------------------------------------------------
 
          Ground-State Mulliken Net Atomic Charges

     Atom                 Charge (a.u.)
  ----------------------------------------
      1 C                    -0.187177
      2 C                    -0.050192
      3 C                    -0.072721
      4 C                    -0.072698
      5 C                    -0.050174
      6 C                    -0.187185
      7 H                     0.065861
      8 H                     0.065860
      9 H                     0.065747
     10 H                     0.055016
     11 H                     0.057596
     12 H                     0.057589
     13 H                     0.055007
     14 H                     0.065862
     15 H                     0.065863
     16 H                     0.065747
  ----------------------------------------
  Sum of atomic charges =     0.000000

 -----------------------------------------------------------------
                    Cartesian Multipole Moments
 -----------------------------------------------------------------
    Charge (ESU x 10^10)
                 0.0000
    Dipole Moment (Debye)
         X      -0.0001      Y       0.0000      Z       0.0000
       Tot       0.0001
    Quadrupole Moments (Debye-Ang)
        XX     -33.7410     XY      -0.0186     YY     -35.1509
        XZ      -0.2395     YZ      -0.2043     ZZ     -37.2828
    Octopole Moments (Debye-Ang^2)
       XXX      -0.0050    XXY       0.0017    XYY      -0.0003
       YYY       0.0085    XXZ      -0.0059    XYZ      -0.0000
       YYZ      -0.0067    XZZ      -0.0008    YZZ       0.0025
       ZZZ      -0.0206
    Hexadecapole Moments (Debye-Ang^3)
      XXXX    -908.8716   XXXY      11.7222   XXYY    -181.1112
      XYYY       8.9450   YYYY    -150.5746   XXXZ      28.4623
      XXYZ       1.6422   XYYZ       9.1249   YYYZ       3.5334
      XXZZ    -157.5001   XYZZ       0.9422   YYZZ     -36.2372
      XZZZ      28.4893   YZZZ       5.7937   ZZZZ     -48.6419
 -----------------------------------------------------------------
 Calculating analytic gradient of the SCF energy
 Gradient of SCF Energy
            1           2           3           4           5           6
    1  -0.0000239  -0.0004231   0.0003573   0.0000285   0.0000602   0.0000020
    2   0.0000467   0.0000024  -0.0000098   0.0000206  -0.0000284  -0.0000540
    3  -0.0000056   0.0000481  -0.0000454   0.0000130  -0.0000240   0.0000134
            7           8           9          10          11          12
    1   0.0000093   0.0000145   0.0000013   0.0000571   0.0000553  -0.0000294
    2  -0.0000026  -0.0000064   0.0000336  -0.0000404  -0.0000336   0.0000441
    3   0.0000127  -0.0000161  -0.0000012  -0.0000092   0.0000089  -0.0000049
           13          14          15          16
    1  -0.0000801  -0.0000156  -0.0000080  -0.0000053
    2   0.0000543   0.0000102   0.0000016  -0.0000382
    3   0.0000036   0.0000144  -0.0000114   0.0000036
 Max gradient component =       4.231E-04
 RMS gradient           =       8.528E-05
 Gradient time:  CPU 0.23 s  wall 0.24 s
-Performing force calculation on product structure in state0
 ----------------------------------------------------------------
             Standard Nuclear Orientation (Angstroms)
    I     Atom           X                Y                Z
 ----------------------------------------------------------------
    1      C       1.9173228510    -0.3182759276     0.6010533447
    2      C       0.6974592340     0.3652304809    -0.0435092762
    3      C       0.4834054003     0.1551473650    -1.5430997351
    4      C      -0.6820417569    -0.4343608706    -1.4088334765
    5      C      -0.6922247674    -0.3581520318     0.1185651666
    6      C      -1.8242185626     0.4487428404     0.7805599564
    7      H       1.8563252131    -0.2628451995     1.6844104080
    8      H       2.8361211012     0.1696040286     0.2874683474
    9      H       1.9714213086    -1.3641215691     0.3139000833
   10      H       0.6620802736     1.4124561639     0.2603306149
   11      H       1.1032977688     0.4158272519    -2.3903956913
   12      H      -1.4067304594    -0.8411362376    -2.1012920280
   13      H      -0.6034632319    -1.3306154941     0.6050753921
   14      H      -1.6190737760     0.5957533032     1.8373277527
   15      H      -2.7702624338    -0.0776440962     0.6885189981
   16      H      -1.9293004248     1.4231958719     0.3130404610
 ----------------------------------------------------------------
 Nuclear Repulsion Energy =         231.67725345 hartrees
 There are       23 alpha and       23 beta electrons
 Applying Cartesian multipole field
    Component          Value
    ---------          -----
     (2,0,0)        1.00000E-11
     (0,2,0)        2.00000E-11
     (0,0,2)       -3.00000E-10
 Nucleus-field energy     =    -0.0000000492 hartrees
 Requested basis set is STO-3G
 There are 22 shells and 40 basis functions
 A cutoff of  1.0D-11 yielded    244 shell pairs
 There are       847 function pairs
 Smallest overlap matrix eigenvalue = 1.64E-01
 Guess from superposition of atomic densities
 Warning:  Energy on first SCF cycle will be non-variational
 SAD guess density has 46.000000 electrons

 -----------------------------------------------------------------------
  General SCF calculation program by
  Eric Jon Sundstrom, Paul Horn, Yuezhi Mao, Dmitri Zuev, Alec White,
  David Stuck, Shaama M.S., Shane Yost, Joonho Lee, David Small,
  Daniel Levine, Susi Lehtola, Hugh Burton, Evgeny Epifanovsky,
  Bang C. Huynh
 -----------------------------------------------------------------------
 Hartree-Fock
 A restricted SCF calculation will be
 performed using DIIS
 SCF converges when DIIS error is below 1.0e-08
 ---------------------------------------
  Cycle       Energy         DIIS error
 ---------------------------------------
    1    -229.5048910743      1.70e-01  
    2    -230.1652554962      1.04e-02  
    3    -230.2028549212      2.74e-03  
    4    -230.2054424181      4.56e-04  
    5    -230.2055039861      2.76e-05  
    6    -230.2055042728      5.90e-06  
    7    -230.2055042875      1.08e-06  
    8    -230.2055042878      3.10e-07  
    9    -230.2055042878      1.11e-07  
   10    -230.2055042877      3.93e-08  
   11    -230.2055042877      1.05e-08  
   12    -230.2055042875      2.10e-09  Convergence criterion met
 ---------------------------------------
 SCF time:   CPU 0.60s  wall 1.00s 
 SCF   energy in the final basis set =     -230.2055042875
 Total energy in the final basis set =     -230.2055042875
 
 --------------------------------------------------------------
 
                    Orbital Energies (a.u.)
 --------------------------------------------------------------
 
 Alpha MOs
 -- Occupied --
-11.0426 -11.0422 -11.0333 -11.0333 -11.0085 -11.0074  -1.1052  -0.9468
 -0.9331  -0.7949  -0.7805  -0.6604  -0.6214  -0.5666  -0.5563  -0.5319
 -0.5228  -0.4909  -0.4507  -0.4406  -0.3850  -0.3792  -0.2999
 -- Virtual --
  0.3292   0.5593   0.5691   0.6220   0.6496   0.6833   0.6932   0.7016
  0.7351   0.7485   0.7509   0.7651   0.7742   0.7991   0.8362   0.8418
  1.1974
 --------------------------------------------------------------
 
          Ground-State Mulliken Net Atomic Charges

     Atom                 Charge (a.u.)
  ----------------------------------------
      1 C                    -0.182265
      2 C                    -0.026708
      3 C                    -0.073126
      4 C                    -0.073071
      5 C                    -0.026756
      6 C                    -0.182272
      7 H                     0.058707
      8 H                     0.059072
      9 H                     0.058333
     10 H                     0.049878
     11 H                     0.056129
     12 H                     0.056125
     13 H                     0.049855
     14 H                     0.058701
     15 H                     0.059070
     16 H                     0.058327
  ----------------------------------------
  Sum of atomic charges =     0.000000

 -----------------------------------------------------------------
                    Cartesian Multipole Moments
 -----------------------------------------------------------------
    Charge (ESU x 10^10)
                 0.0000
    Dipole Moment (Debye)
         X       0.0071      Y       0.0101      Z       0.1080
       Tot       0.1087
    Quadrupole Moments (Debye-Ang)
        XX     -36.0945     XY       0.5585     YY     -36.3826
        XZ      -0.0477     YZ      -0.0040     ZZ     -36.0270
    Octopole Moments (Debye-Ang^2)
       XXX       0.8026    XXY       0.2732    XYY       0.2711
       YYY       1.7889    XXZ       4.0367    XYZ      -0.7740
       YYZ       6.2831    XZZ       0.7633    YZZ       0.5423
       ZZZ      17.1208
    Hexadecapole Moments (Debye-Ang^3)
      XXXX    -430.6230   XXXY      20.1860   XXYY     -87.6697
      XYYY      13.4395   YYYY     -90.6726   XXXZ       4.0730
      XXYZ      -2.7466   XYYZ       2.0786   YYYZ      -9.6029
      XXZZ    -113.8469   XYZZ       8.0644   YYZZ     -60.6584
      XZZZ       3.5451   YZZZ      -8.5008   ZZZZ    -254.0046
 -----------------------------------------------------------------
 Calculating analytic gradient of the SCF energy
 Gradient of SCF Energy
            1           2           3           4           5           6
    1  -0.0000142  -0.0000245   0.0000765   0.0001223  -0.0000264  -0.0000140
    2  -0.0000022  -0.0000208   0.0000349   0.0000568   0.0000013  -0.0000079
    3   0.0000029  -0.0000160   0.0001183  -0.0001771   0.0000326   0.0000010
            7           8           9          10          11          12
    1  -0.0000009  -0.0000145  -0.0000007   0.0000071  -0.0000571  -0.0000686
    2  -0.0000008   0.0000038   0.0000022   0.0000027  -0.0000301  -0.0000271
    3   0.0000008  -0.0000037  -0.0000013   0.0000017  -0.0000434   0.0000823
           13          14          15          16
    1  -0.0000033   0.0000053   0.0000101   0.0000029
    2  -0.0000056  -0.0000016  -0.0000012  -0.0000045
    3   0.0000066  -0.0000014  -0.0000016  -0.0000018
 Max gradient component =       1.771E-04
 RMS gradient           =       4.400E-05
 Gradient time:  CPU 0.20 s  wall 0.20 s

STARTING FREEZING STRING ITERATION # 1
 The distance between the innermost nodes (Angstroms): 6.544
-Adding two new nodes
 The distance between the previous and current R_nodes (Angstroms): 0.6370
 The distance between the previous and current P_nodes (Angstroms): 0.6256
-Optimizing new reactant side node
-Starting node optimization
-performing optimization step: 1
 ----------------------------------------------------------------
             Standard Nuclear Orientation (Angstroms)
    I     Atom           X                Y                Z
 ----------------------------------------------------------------
    1      C       2.7176389185    -0.4492671274    -0.0630266675
    2      C       1.7011194833     0.6716770601    -0.1234272291
    3      C       0.3813609081     0.5907088547    -0.2549948397
    4      C      -0.4056038928    -0.6239066951    -0.0846626933
    5      C      -1.6958378902    -0.6627313255     0.2313055062
    6      C      -2.7093962503     0.4623774674     0.2160333383
    7      H       3.3564026885    -0.3063260262     0.8056661740
    8      H       3.3463213435    -0.4327402721    -0.9502478812
    9      H       2.2700092136    -1.4315732663     0.0168240099
   10      H       2.1478774559     1.6573253967    -0.2130466853
   11      H      -0.1197954918     1.5222209846    -0.4773992307
   12      H       0.0727986764    -1.5868608602    -0.1953903289
   13      H      -2.1378166989    -1.6419090510     0.3893081956
   14      H      -3.2254156491     0.4924194394     1.1730575302
   15      H      -3.4499581017     0.2882269962    -0.5610671812
   16      H      -2.2674291659     1.4365547018     0.0507399290
 ----------------------------------------------------------------
 Nuclear Repulsion Energy =         213.76981950 hartrees
 There are       23 alpha and       23 beta electrons
 Applying Cartesian multipole field
    Component          Value
    ---------          -----
     (2,0,0)        1.00000E-11
     (0,2,0)        2.00000E-11
     (0,0,2)       -3.00000E-10
 Nucleus-field energy     =     0.0000000035 hartrees
 Requested basis set is STO-3G
 There are 22 shells and 40 basis functions
 A cutoff of  1.0D-11 yielded    243 shell pairs
 There are       846 function pairs
 Smallest overlap matrix eigenvalue = 1.80E-01
 Guess from superposition of atomic densities
 Warning:  Energy on first SCF cycle will be non-variational
 SAD guess density has 46.000000 electrons

 -----------------------------------------------------------------------
  General SCF calculation program by
  Eric Jon Sundstrom, Paul Horn, Yuezhi Mao, Dmitri Zuev, Alec White,
  David Stuck, Shaama M.S., Shane Yost, Joonho Lee, David Small,
  Daniel Levine, Susi Lehtola, Hugh Burton, Evgeny Epifanovsky,
  Bang C. Huynh
 -----------------------------------------------------------------------
 Hartree-Fock
 A restricted SCF calculation will be
 performed using DIIS
 SCF converges when DIIS error is below 1.0e-08
 ---------------------------------------
  Cycle       Energy         DIIS error
 ---------------------------------------
    1    -229.5285663227      1.72e-01  
    2    -230.1401988279      1.03e-02  
    3    -230.1772209100      2.67e-03  
    4    -230.1798401224      3.80e-04  
    5    -230.1798862418      8.77e-05  
    6    -230.1798890985      2.88e-05  
    7    -230.1798896350      4.10e-06  
    8    -230.1798896461      8.78e-07  
    9    -230.1798896467      2.32e-07  
   10    -230.1798896467      3.24e-08  
   11    -230.1798896469      5.74e-09  Convergence criterion met
 ---------------------------------------
 SCF time:   CPU 0.50s  wall 1.00s 
 SCF   energy in the final basis set =     -230.1798896469
 Total energy in the final basis set =     -230.1798896469
 
 --------------------------------------------------------------
 
                    Orbital Energies (a.u.)
 --------------------------------------------------------------
 
 Alpha MOs
 -- Occupied --
-11.0417 -11.0416 -11.0196 -11.0196 -11.0168 -11.0167  -1.0449  -0.9931
 -0.9137  -0.8683  -0.7359  -0.6587  -0.6179  -0.5645  -0.5390  -0.5388
 -0.5363  -0.4841  -0.4702  -0.4674  -0.4164  -0.3645  -0.2484
 -- Virtual --
  0.2569   0.4072   0.5921   0.6495   0.6695   0.6703   0.6938   0.7148
  0.7248   0.7298   0.7375   0.7668   0.7695   0.9231   0.9399   1.0619
  1.1119
 --------------------------------------------------------------
 
          Ground-State Mulliken Net Atomic Charges

     Atom                 Charge (a.u.)
  ----------------------------------------
      1 C                    -0.188734
      2 C                    -0.046953
      3 C                    -0.075045
      4 C                    -0.075029
      5 C                    -0.046966
      6 C                    -0.188755
      7 H                     0.064930
      8 H                     0.067615
      9 H                     0.065963
     10 H                     0.052017
     11 H                     0.060224
     12 H                     0.060218
     13 H                     0.052033
     14 H                     0.064934
     15 H                     0.067604
     16 H                     0.065944
  ----------------------------------------
  Sum of atomic charges =     0.000000

 -----------------------------------------------------------------
                    Cartesian Multipole Moments
 -----------------------------------------------------------------
    Charge (ESU x 10^10)
                 0.0000
    Dipole Moment (Debye)
         X      -0.0034      Y      -0.0049      Z      -0.0532
       Tot       0.0535
    Quadrupole Moments (Debye-Ang)
        XX     -33.9160     XY      -0.0320     YY     -35.0765
        XZ      -0.2216     YZ      -0.2007     ZZ     -37.1898
    Octopole Moments (Debye-Ang^2)
       XXX       0.1349    XXY       0.0734    XYY       0.0704
       YYY       0.0181    XXZ       0.2002    XYZ       0.2668
       YYZ      -0.1585    XZZ       0.0583    YZZ       0.1613
       ZZZ       1.5036
    Hexadecapole Moments (Debye-Ang^3)
      XXXX    -900.8283   XXXY      12.7869   XXYY    -179.4009
      XYYY       9.8900   YYYY    -148.1419   XXXZ      28.0085
      XXYZ       1.5902   XYYZ       9.0073   YYYZ       3.2588
      XXZZ    -156.3649   XYZZ       1.4565   YYZZ     -36.2253
      XZZZ      27.8484   YZZZ       5.3696   ZZZZ     -52.0369
 -----------------------------------------------------------------
 Calculating analytic gradient of the SCF energy
 Gradient of SCF Energy
            1           2           3           4           5           6
    1  -0.0013694   0.0134044  -0.0389779   0.0392234  -0.0110767  -0.0005005
    2   0.0015870  -0.0040689  -0.0153472   0.0151599   0.0077490  -0.0041938
    3  -0.0140085   0.0201900   0.0019378  -0.0051704   0.0201040  -0.0133386
            7           8           9          10          11          12
    1  -0.0033897  -0.0001939   0.0027185  -0.0007370   0.0082712  -0.0092602
    2   0.0017214  -0.0014367   0.0003936   0.0009535   0.0013466  -0.0026896
    3   0.0012658   0.0001973   0.0006999   0.0000978  -0.0078399  -0.0065192
           13          14          15          16
    1   0.0007184   0.0035154   0.0002345  -0.0025805
    2  -0.0008988  -0.0014567   0.0014124  -0.0002316
    3   0.0002764   0.0010902  -0.0001021   0.0011194
 Max gradient component =       3.922E-02
 RMS gradient           =       1.067E-02
 Gradient time:  CPU 0.23 s  wall 0.24 s
-taking node optimization step
Magnitude of Displacement (Angstroms): 0.0785433
-performing optimization step: 2
 ----------------------------------------------------------------
             Standard Nuclear Orientation (Angstroms)
    I     Atom           X                Y                Z
 ----------------------------------------------------------------
    1      C       2.7185961892    -0.4508401592    -0.0462905897
    2      C       1.6858537334     0.6759630422    -0.1432292923
    3      C       0.4230402102     0.6068736037    -0.2604247174
    4      C      -0.4479960555    -0.6405031756    -0.0824905351
    5      C      -1.6828269885    -0.6706277830     0.2114137033
    6      C      -2.7081247404     0.4670594369     0.2319560189
    7      H       3.3586573008    -0.3083003766     0.8065946668
    8      H       3.3467719644    -0.4302831783    -0.9482847819
    9      H       2.2668884222    -1.4320732030     0.0168637056
   10      H       2.1477277428     1.6563179947    -0.2106475130
   11      H      -0.1283398271     1.5197294225    -0.4766400830
   12      H       0.0813771261    -1.5843688588    -0.1959935369
   13      H      -2.1373185396    -1.6405028646     0.3913212825
   14      H      -3.2275098476     0.4945213713     1.1739059045
   15      H      -3.4501640548     0.2862110141    -0.5586286041
   16      H      -2.2643570813     1.4370198213     0.0502463731
 ----------------------------------------------------------------
 Nuclear Repulsion Energy =         213.99458250 hartrees
 There are       23 alpha and       23 beta electrons
 Applying Cartesian multipole field
    Component          Value
    ---------          -----
     (2,0,0)        1.00000E-11
     (0,2,0)        2.00000E-11
     (0,0,2)       -3.00000E-10
 Nucleus-field energy     =     0.0000000035 hartrees
 Requested basis set is STO-3G
 There are 22 shells and 40 basis functions
 A cutoff of  1.0D-11 yielded    243 shell pairs
 There are       846 function pairs
 Smallest overlap matrix eigenvalue = 1.60E-01
 Guess from superposition of atomic densities
 Warning:  Energy on first SCF cycle will be non-variational
 SAD guess density has 46.000000 electrons

 -----------------------------------------------------------------------
  General SCF calculation program by
  Eric Jon Sundstrom, Paul Horn, Yuezhi Mao, Dmitri Zuev, Alec White,
  David Stuck, Shaama M.S., Shane Yost, Joonho Lee, David Small,
  Daniel Levine, Susi Lehtola, Hugh Burton, Evgeny Epifanovsky,
  Bang C. Huynh
 -----------------------------------------------------------------------
 Hartree-Fock
 A restricted SCF calculation will be
 performed using DIIS
 SCF converges when DIIS error is below 1.0e-08
 ---------------------------------------
  Cycle       Energy         DIIS error
 ---------------------------------------
    1    -229.6173720267      1.76e-01  
    2    -230.1344145151      1.04e-02  
    3    -230.1714870960      2.67e-03  
    4    -230.1739900500      4.25e-04  
    5    -230.1740378586      8.42e-05  
    6    -230.1740397408      1.67e-05  
    7    -230.1740399158      2.67e-06  
    8    -230.1740399210      5.91e-07  
    9    -230.1740399214      1.40e-07  
   10    -230.1740399214      2.20e-08  
   11    -230.1740399215      4.37e-09  Convergence criterion met
 ---------------------------------------
 SCF time:   CPU 0.50s  wall 1.00s 
 SCF   energy in the final basis set =     -230.1740399215
 Total energy in the final basis set =     -230.1740399215
 
 --------------------------------------------------------------
 
                    Orbital Energies (a.u.)
 --------------------------------------------------------------
 
 Alpha MOs
 -- Occupied --
-11.0422 -11.0422 -11.0230 -11.0229 -11.0198 -11.0195  -1.0500  -1.0022
 -0.9095  -0.8801  -0.7310  -0.6549  -0.6232  -0.5667  -0.5404  -0.5355
 -0.5355  -0.4887  -0.4838  -0.4634  -0.4015  -0.3687  -0.2787
 -- Virtual --
  0.2865   0.4177   0.5577   0.6293   0.6480   0.6651   0.6802   0.7236
  0.7243   0.7320   0.7397   0.7671   0.7700   0.9301   0.9442   1.1114
  1.1917
 --------------------------------------------------------------
 
          Ground-State Mulliken Net Atomic Charges

     Atom                 Charge (a.u.)
  ----------------------------------------
      1 C                    -0.184166
      2 C                    -0.056778
      3 C                    -0.070471
      4 C                    -0.070544
      5 C                    -0.056749
      6 C                    -0.184137
      7 H                     0.067184
      8 H                     0.064397
      9 H                     0.065271
     10 H                     0.056189
     11 H                     0.058389
     12 H                     0.058440
     13 H                     0.056152
     14 H                     0.067146
     15 H                     0.064421
     16 H                     0.065256
  ----------------------------------------
  Sum of atomic charges =     0.000000

 -----------------------------------------------------------------
                    Cartesian Multipole Moments
 -----------------------------------------------------------------
    Charge (ESU x 10^10)
                 0.0000
    Dipole Moment (Debye)
         X      -0.0018      Y      -0.0028      Z      -0.0295
       Tot       0.0297
    Quadrupole Moments (Debye-Ang)
        XX     -33.8580     XY      -0.0319     YY     -35.0625
        XZ      -0.2240     YZ      -0.2024     ZZ     -37.1860
    Octopole Moments (Debye-Ang^2)
       XXX       0.2014    XXY       0.1168    XYY       0.0917
       YYY       0.0508    XXZ       0.5459    XYZ       0.3238
       YYZ      -0.0401    XZZ       0.0085    YZZ       0.1424
       ZZZ       1.6319
    Hexadecapole Moments (Debye-Ang^3)
      XXXX    -898.7056   XXXY      12.0637   XXYY    -179.2472
      XYYY       9.4662   YYYY    -149.9746   XXXZ      27.9674
      XXYZ       1.6040   XYYZ       8.9794   YYYZ       3.3711
      XXZZ    -156.2698   XYZZ       1.2511   YYZZ     -36.5329
      XZZZ      27.8814   YZZZ       5.4863   ZZZZ     -52.1622
 -----------------------------------------------------------------
 Calculating analytic gradient of the SCF energy
 Gradient of SCF Energy
            1           2           3           4           5           6
    1   0.0069573  -0.0902408   0.1031172  -0.1018038   0.0906904  -0.0053478
    2  -0.0042726  -0.0019595   0.0214816  -0.0185777   0.0013215   0.0066454
    3   0.0127406   0.0015895   0.0068435   0.0249753  -0.0111685   0.0122772
            7           8           9          10          11          12
    1  -0.0066981   0.0047248   0.0020429  -0.0007389  -0.0012369   0.0002410
    2  -0.0009858  -0.0005006   0.0009255   0.0008436   0.0030997  -0.0044492
    3  -0.0083872  -0.0088483  -0.0015483   0.0022107  -0.0076817  -0.0071719
           13          14          15          16
    1   0.0008946   0.0054265  -0.0058304  -0.0021981
    2  -0.0006254  -0.0006636  -0.0010614  -0.0012213
    3   0.0022842  -0.0090944  -0.0079884  -0.0010323
 Max gradient component =       1.031E-01
 RMS gradient           =       2.888E-02
 Gradient time:  CPU 0.21 s  wall 0.21 s
-taking optimization step
Magnitude of Displacement (Angstroms): 0.1131876
-performing optimization step: 3
 ----------------------------------------------------------------
             Standard Nuclear Orientation (Angstroms)
    I     Atom           X                Y                Z
 ----------------------------------------------------------------
    1      C       2.7117718056    -0.4477271146    -0.0424828069
    2      C       1.7358537334     0.6823092421    -0.1637167100
    3      C       0.3730402102     0.5996312274    -0.2749651170
    4      C      -0.3979960555    -0.6371551075    -0.1090462792
    5      C      -1.7328269885    -0.6797082617     0.2045191684
    6      C      -2.7007015030     0.4646447530     0.2354043648
    7      H       3.3674200993    -0.3092699532     0.8177633553
    8      H       3.3422448458    -0.4268189510    -0.9356449918
    9      H       2.2614660115    -1.4336112944     0.0189854603
   10      H       2.1478886048     1.6544109382    -0.2093443989
   11      H      -0.1353487824     1.5133558570    -0.4715590902
   12      H       0.0889625452    -1.5772849915    -0.1927923525
   13      H      -2.1371298198    -1.6381965602     0.3920595874
   14      H      -3.2345864228     0.4976128844     1.1856191567
   15      H      -3.4440497075     0.2850884132    -0.5463634216
   16      H      -2.2587640609     1.4389147680     0.0512361604
 ----------------------------------------------------------------
 Nuclear Repulsion Energy =         212.84672384 hartrees
 There are       23 alpha and       23 beta electrons
 Applying Cartesian multipole field
    Component          Value
    ---------          -----
     (2,0,0)        1.00000E-11
     (0,2,0)        2.00000E-11
     (0,0,2)       -3.00000E-10
 Nucleus-field energy     =     0.0000000034 hartrees
 Requested basis set is STO-3G
 There are 22 shells and 40 basis functions
 A cutoff of  1.0D-11 yielded    243 shell pairs
 There are       846 function pairs
 Smallest overlap matrix eigenvalue = 1.91E-01
 Guess from superposition of atomic densities
 Warning:  Energy on first SCF cycle will be non-variational
 SAD guess density has 46.000000 electrons

 -----------------------------------------------------------------------
  General SCF calculation program by
  Eric Jon Sundstrom, Paul Horn, Yuezhi Mao, Dmitri Zuev, Alec White,
  David Stuck, Shaama M.S., Shane Yost, Joonho Lee, David Small,
  Daniel Levine, Susi Lehtola, Hugh Burton, Evgeny Epifanovsky,
  Bang C. Huynh
 -----------------------------------------------------------------------
 Hartree-Fock
 A restricted SCF calculation will be
 performed using DIIS
 SCF converges when DIIS error is below 1.0e-08
 ---------------------------------------
  Cycle       Energy         DIIS error
 ---------------------------------------
    1    -229.4503784176      1.69e-01  
    2    -230.1324493799      1.03e-02  
    3    -230.1697516677      2.71e-03  
    4    -230.1724573584      5.48e-04  
    5    -230.1725448207      1.44e-04  
    6    -230.1725514715      3.42e-05  
    7    -230.1725524838      4.09e-06  
    8    -230.1725524962      7.94e-07  
    9    -230.1725524967      2.74e-07  
   10    -230.1725524968      1.12e-07  
   11    -230.1725524969      1.68e-08  
   12    -230.1725524970      4.61e-09  Convergence criterion met
 ---------------------------------------
 SCF time:   CPU 0.49s  wall 1.00s 
 SCF   energy in the final basis set =     -230.1725524970
 Total energy in the final basis set =     -230.1725524970
 
 --------------------------------------------------------------
 
                    Orbital Energies (a.u.)
 --------------------------------------------------------------
 
 Alpha MOs
 -- Occupied --
-11.0424 -11.0424 -11.0178 -11.0178 -11.0143 -11.0141  -1.0366  -0.9908
 -0.9126  -0.8605  -0.7407  -0.6648  -0.6177  -0.5642  -0.5379  -0.5367
 -0.5341  -0.4871  -0.4725  -0.4605  -0.4252  -0.3561  -0.2324
 -- Virtual --
  0.2446   0.3972   0.6128   0.6596   0.6671   0.6780   0.6999   0.7162
  0.7209   0.7244   0.7396   0.7677   0.7802   0.9254   0.9304   1.0342
  1.0654
 --------------------------------------------------------------
 
          Ground-State Mulliken Net Atomic Charges

     Atom                 Charge (a.u.)
  ----------------------------------------
      1 C                    -0.187795
      2 C                    -0.053316
      3 C                    -0.075000
      4 C                    -0.075573
      5 C                    -0.052925
      6 C                    -0.187738
      7 H                     0.065678
      8 H                     0.065403
      9 H                     0.067419
     10 H                     0.057506
     11 H                     0.060260
     12 H                     0.060495
     13 H                     0.057268
     14 H                     0.065566
     15 H                     0.065407
     16 H                     0.067346
  ----------------------------------------
  Sum of atomic charges =     0.000000

 -----------------------------------------------------------------
                    Cartesian Multipole Moments
 -----------------------------------------------------------------
    Charge (ESU x 10^10)
                 0.0000
    Dipole Moment (Debye)
         X      -0.0009      Y      -0.0004      Z      -0.0017
       Tot       0.0019
    Quadrupole Moments (Debye-Ang)
        XX     -33.8174     XY      -0.0277     YY     -35.0535
        XZ      -0.2217     YZ      -0.2092     ZZ     -37.2314
    Octopole Moments (Debye-Ang^2)
       XXX       0.2292    XXY       0.1712    XYY       0.0890
       YYY       0.1476    XXZ       1.1272    XYZ       0.3153
       YYZ       0.2846    XZZ      -0.0314    YZZ       0.1649
       ZZZ       2.4785
    Hexadecapole Moments (Debye-Ang^3)
      XXXX    -905.2207   XXXY      11.9701   XXYY    -180.2818
      XYYY       8.2699   YYYY    -149.7948   XXXZ      28.4284
      XXYZ       1.5976   XYYZ       9.1841   YYYZ       3.4279
      XXZZ    -157.2427   XYZZ       1.0607   YYZZ     -36.6396
      XZZZ      28.2135   YZZZ       5.5108   ZZZZ     -52.7598
 -----------------------------------------------------------------
 Calculating analytic gradient of the SCF energy
 Gradient of SCF Energy
            1           2           3           4           5           6
    1  -0.0183636   0.0967306  -0.0938105   0.0955189  -0.0954650   0.0178880
    2   0.0061297   0.0173373   0.0079132  -0.0112859  -0.0149826  -0.0053719
    3   0.0031466   0.0062174  -0.0042345  -0.0182781   0.0250350   0.0008993
            7           8           9          10          11          12
    1   0.0014986  -0.0011756   0.0029752  -0.0154049   0.0136722  -0.0151530
    2   0.0011912   0.0033831  -0.0038650  -0.0227804  -0.0128871   0.0138222
    3   0.0011327  -0.0045543  -0.0013592   0.0043409  -0.0029955  -0.0029870
           13          14          15          16
    1   0.0151597  -0.0011370   0.0002031  -0.0031367
    2   0.0228650  -0.0011616  -0.0037915   0.0034843
    3  -0.0023499   0.0015643  -0.0039311  -0.0016468
 Max gradient component =       9.673E-02
 RMS gradient           =       2.934E-02
 Gradient time:  CPU 0.12 s  wall 0.13 s
-taking optimization step
Magnitude of Displacement (Angstroms): 0.1301273
 ----------------------------------------------------------------
             Standard Nuclear Orientation (Angstroms)
    I     Atom           X                Y                Z
 ----------------------------------------------------------------
    1      C       2.7117718056    -0.4477271146    -0.0424828069
    2      C       1.7358537334     0.6823092421    -0.1637167100
    3      C       0.3730402102     0.5996312274    -0.2749651170
    4      C      -0.3979960555    -0.6371551075    -0.1090462792
    5      C      -1.7328269885    -0.6797082617     0.2045191684
    6      C      -2.7007015030     0.4646447530     0.2354043648
    7      H       3.3674200993    -0.3092699532     0.8177633553
    8      H       3.3422448458    -0.4268189510    -0.9356449918
    9      H       2.2614660115    -1.4336112944     0.0189854603
   10      H       2.1478886048     1.6544109382    -0.2093443989
   11      H      -0.1353487824     1.5133558570    -0.4715590902
   12      H       0.0889625452    -1.5772849915    -0.1927923525
   13      H      -2.1371298198    -1.6381965602     0.3920595874
   14      H      -3.2345864228     0.4976128844     1.1856191567
   15      H      -3.4440497075     0.2850884132    -0.5463634216
   16      H      -2.2587640609     1.4389147680     0.0512361604
 ----------------------------------------------------------------
 Nuclear Repulsion Energy =         212.84672384 hartrees
 There are       23 alpha and       23 beta electrons
 Applying Cartesian multipole field
    Component          Value
    ---------          -----
     (2,0,0)        1.00000E-11
     (0,2,0)        2.00000E-11
     (0,0,2)       -3.00000E-10
 Nucleus-field energy     =     0.0000000034 hartrees
 Requested basis set is STO-3G
 There are 22 shells and 40 basis functions
 A cutoff of  1.0D-11 yielded    243 shell pairs
 There are       846 function pairs
 Smallest overlap matrix eigenvalue = 1.91E-01
 Guess from superposition of atomic densities
 Warning:  Energy on first SCF cycle will be non-variational
 SAD guess density has 46.000000 electrons

 -----------------------------------------------------------------------
  General SCF calculation program by
  Eric Jon Sundstrom, Paul Horn, Yuezhi Mao, Dmitri Zuev, Alec White,
  David Stuck, Shaama M.S., Shane Yost, Joonho Lee, David Small,
  Daniel Levine, Susi Lehtola, Hugh Burton, Evgeny Epifanovsky,
  Bang C. Huynh
 -----------------------------------------------------------------------
 Hartree-Fock
 A restricted SCF calculation will be
 performed using DIIS
 SCF converges when DIIS error is below 1.0e-08
 ---------------------------------------
  Cycle       Energy         DIIS error
 ---------------------------------------
    1    -229.4503784176      1.69e-01  
    2    -230.1324493799      1.03e-02  
    3    -230.1697516677      2.71e-03  
    4    -230.1724573584      5.48e-04  
    5    -230.1725448207      1.44e-04  
    6    -230.1725514715      3.42e-05  
    7    -230.1725524838      4.09e-06  
    8    -230.1725524962      7.94e-07  
    9    -230.1725524967      2.74e-07  
   10    -230.1725524968      1.12e-07  
   11    -230.1725524969      1.68e-08  
   12    -230.1725524970      4.61e-09  Convergence criterion met
 ---------------------------------------
 SCF time:   CPU 0.63s  wall 0.00s 
 SCF   energy in the final basis set =     -230.1725524970
 Total energy in the final basis set =     -230.1725524970
 
 --------------------------------------------------------------
 
                    Orbital Energies (a.u.)
 --------------------------------------------------------------
 
 Alpha MOs
 -- Occupied --
-11.0424 -11.0424 -11.0178 -11.0178 -11.0143 -11.0141  -1.0366  -0.9908
 -0.9126  -0.8605  -0.7407  -0.6648  -0.6177  -0.5642  -0.5379  -0.5367
 -0.5341  -0.4871  -0.4725  -0.4605  -0.4252  -0.3561  -0.2324
 -- Virtual --
  0.2446   0.3972   0.6128   0.6596   0.6671   0.6780   0.6999   0.7162
  0.7209   0.7244   0.7396   0.7677   0.7802   0.9254   0.9304   1.0342
  1.0654
 --------------------------------------------------------------
 
          Ground-State Mulliken Net Atomic Charges

     Atom                 Charge (a.u.)
  ----------------------------------------
      1 C                    -0.187795
      2 C                    -0.053316
      3 C                    -0.075000
      4 C                    -0.075573
      5 C                    -0.052925
      6 C                    -0.187738
      7 H                     0.065678
      8 H                     0.065403
      9 H                     0.067419
     10 H                     0.057506
     11 H                     0.060260
     12 H                     0.060495
     13 H                     0.057268
     14 H                     0.065566
     15 H                     0.065407
     16 H                     0.067346
  ----------------------------------------
  Sum of atomic charges =     0.000000

 -----------------------------------------------------------------
                    Cartesian Multipole Moments
 -----------------------------------------------------------------
    Charge (ESU x 10^10)
                 0.0000
    Dipole Moment (Debye)
         X      -0.0009      Y      -0.0004      Z      -0.0017
       Tot       0.0019
    Quadrupole Moments (Debye-Ang)
        XX     -33.8174     XY      -0.0277     YY     -35.0535
        XZ      -0.2217     YZ      -0.2092     ZZ     -37.2314
    Octopole Moments (Debye-Ang^2)
       XXX       0.2292    XXY       0.1712    XYY       0.0890
       YYY       0.1476    XXZ       1.1272    XYZ       0.3153
       YYZ       0.2846    XZZ      -0.0314    YZZ       0.1649
       ZZZ       2.4785
    Hexadecapole Moments (Debye-Ang^3)
      XXXX    -905.2207   XXXY      11.9701   XXYY    -180.2818
      XYYY       8.2699   YYYY    -149.7948   XXXZ      28.4284
      XXYZ       1.5976   XYYZ       9.1841   YYYZ       3.4279
      XXZZ    -157.2427   XYZZ       1.0607   YYZZ     -36.6396
      XZZZ      28.2135   YZZZ       5.5108   ZZZZ     -52.7598
 -----------------------------------------------------------------
 Calculating analytic gradient of the SCF energy
 Gradient of SCF Energy
            1           2           3           4           5           6
    1  -0.0183636   0.0967306  -0.0938105   0.0955189  -0.0954650   0.0178880
    2   0.0061297   0.0173373   0.0079132  -0.0112859  -0.0149826  -0.0053719
    3   0.0031466   0.0062174  -0.0042345  -0.0182781   0.0250350   0.0008993
            7           8           9          10          11          12
    1   0.0014986  -0.0011756   0.0029752  -0.0154049   0.0136722  -0.0151530
    2   0.0011912   0.0033831  -0.0038650  -0.0227804  -0.0128871   0.0138222
    3   0.0011327  -0.0045543  -0.0013592   0.0043409  -0.0029955  -0.0029870
           13          14          15          16
    1   0.0151597  -0.0011370   0.0002031  -0.0031367
    2   0.0228650  -0.0011616  -0.0037915   0.0034843
    3  -0.0023499   0.0015643  -0.0039311  -0.0016468
 Max gradient component =       9.673E-02
 RMS gradient           =       2.934E-02
 Gradient time:  CPU 0.12 s  wall 0.12 s
done with opt_step_by_gradient, Reactant, iter1
-Optimizing new product side node
-Starting node optimization
-performing optimization step: 1
 ----------------------------------------------------------------
             Standard Nuclear Orientation (Angstroms)
    I     Atom           X                Y                Z
 ----------------------------------------------------------------
    1      C       2.0199869206    -0.3386623951     0.5447791769
    2      C       0.8062899389     0.4138890201    -0.0172498288
    3      C       0.4701980453     0.2065322909    -1.4630986627
    4      C      -0.6576274590    -0.4736207501    -1.3227039994
    5      C      -0.7976206757    -0.4008324135     0.1678052763
    6      C      -1.9352981361     0.4588422116     0.7352265893
    7      H       2.0396716855    -0.2694656971     1.6287879677
    8      H       2.9424590925     0.0948622108     0.1683910115
    9      H       1.9969591476    -1.3874694976     0.2669044316
   10      H       0.8375142972     1.4639169549     0.2744096635
   11      H       0.9799561741     0.5963234293    -2.3309199324
   12      H      -1.2760315263    -1.0093852872    -2.0265491509
   13      H      -0.7764623977    -1.3771549779     0.6525815148
   14      H      -1.8096738904     0.5944752822     1.8057747962
   15      H      -2.8940546989    -0.0259974014     0.5730838654
   16      H      -1.9627529798     1.4364498452     0.2648403870
 ----------------------------------------------------------------
 Nuclear Repulsion Energy =         228.11976148 hartrees
 There are       23 alpha and       23 beta electrons
 Applying Cartesian multipole field
    Component          Value
    ---------          -----
     (2,0,0)        1.00000E-11
     (0,2,0)        2.00000E-11
     (0,0,2)       -3.00000E-10
 Nucleus-field energy     =    -0.0000000437 hartrees
 Requested basis set is STO-3G
 There are 22 shells and 40 basis functions
 A cutoff of  1.0D-11 yielded    244 shell pairs
 There are       847 function pairs
 Smallest overlap matrix eigenvalue = 1.71E-01
 Guess from superposition of atomic densities
 Warning:  Energy on first SCF cycle will be non-variational
 SAD guess density has 46.000000 electrons

 -----------------------------------------------------------------------
  General SCF calculation program by
  Eric Jon Sundstrom, Paul Horn, Yuezhi Mao, Dmitri Zuev, Alec White,
  David Stuck, Shaama M.S., Shane Yost, Joonho Lee, David Small,
  Daniel Levine, Susi Lehtola, Hugh Burton, Evgeny Epifanovsky,
  Bang C. Huynh
 -----------------------------------------------------------------------
 Hartree-Fock
 A restricted SCF calculation will be
 performed using DIIS
 SCF converges when DIIS error is below 1.0e-08
 ---------------------------------------
  Cycle       Energy         DIIS error
 ---------------------------------------
    1    -229.3555249580      1.66e-01  
    2    -230.1317246132      1.03e-02  
    3    -230.1698186450      2.74e-03  
    4    -230.1725269937      3.89e-04  
    5    -230.1725743502      3.19e-05  
    6    -230.1725748836      6.18e-06  
    7    -230.1725749112      1.88e-06  
    8    -230.1725749141      4.49e-07  
    9    -230.1725749142      1.42e-07  
   10    -230.1725749142      4.57e-08  
   11    -230.1725749141      1.17e-08  
   12    -230.1725749142      3.12e-09  Convergence criterion met
 ---------------------------------------
 SCF time:   CPU 0.60s  wall 0.00s 
 SCF   energy in the final basis set =     -230.1725749142
 Total energy in the final basis set =     -230.1725749142
 
 --------------------------------------------------------------
 
                    Orbital Energies (a.u.)
 --------------------------------------------------------------
 
 Alpha MOs
 -- Occupied --
-11.0406 -11.0401 -11.0363 -11.0363 -11.0067 -11.0057  -1.0829  -0.9554
 -0.9270  -0.7949  -0.7729  -0.6557  -0.6203  -0.5646  -0.5510  -0.5296
 -0.5250  -0.4900  -0.4600  -0.4476  -0.3989  -0.3275  -0.2897
 -- Virtual --
  0.3215   0.4145   0.6155   0.6411   0.6563   0.6875   0.6966   0.7003
  0.7325   0.7400   0.7537   0.7582   0.7724   0.7945   0.8270   0.8624
  1.1642
 --------------------------------------------------------------
 
          Ground-State Mulliken Net Atomic Charges

     Atom                 Charge (a.u.)
  ----------------------------------------
      1 C                    -0.184414
      2 C                    -0.028023
      3 C                    -0.071067
      4 C                    -0.071001
      5 C                    -0.028021
      6 C                    -0.184405
      7 H                     0.061407
      8 H                     0.060771
      9 H                     0.061664
     10 H                     0.046721
     11 H                     0.052911
     12 H                     0.052845
     13 H                     0.046653
     14 H                     0.061479
     15 H                     0.060800
     16 H                     0.061679
  ----------------------------------------
  Sum of atomic charges =     0.000000

 -----------------------------------------------------------------
                    Cartesian Multipole Moments
 -----------------------------------------------------------------
    Charge (ESU x 10^10)
                 0.0000
    Dipole Moment (Debye)
         X       0.0067      Y       0.0142      Z       0.1261
       Tot       0.1270
    Quadrupole Moments (Debye-Ang)
        XX     -35.6134     XY       0.8022     YY     -36.0938
        XZ      -0.1248     YZ      -0.0804     ZZ     -36.3278
    Octopole Moments (Debye-Ang^2)
       XXX       0.9504    XXY       0.3232    XYY       0.1945
       YYY       1.5932    XXZ       4.4974    XYZ      -0.9387
       YYZ       5.2937    XZZ       0.6985    YZZ       0.7246
       ZZZ      16.3882
    Hexadecapole Moments (Debye-Ang^3)
      XXXX    -472.7181   XXXY      19.2511   XXYY     -96.2402
      XYYY      13.2547   YYYY     -97.9726   XXXZ       6.0241
      XXYZ      -2.3718   XYYZ       2.8664   YYYZ      -7.9480
      XXZZ    -118.6512   XYZZ       7.8270   YYZZ     -57.2222
      XZZZ       5.9563   YZZZ      -7.5818   ZZZZ    -233.8832
 -----------------------------------------------------------------
 Calculating analytic gradient of the SCF energy
 Gradient of SCF Energy
            1           2           3           4           5           6
    1   0.0007130   0.0864234   0.0238317  -0.0202225  -0.0892398  -0.0010663
    2   0.0013589   0.0345753   0.0103142  -0.0064045  -0.0378274  -0.0018506
    3  -0.0028088  -0.0281039   0.0206097   0.0250841  -0.0095094  -0.0021663
            7           8           9          10          11          12
    1   0.0001638  -0.0005305   0.0000697   0.0043688  -0.0057729   0.0060392
    2   0.0004503  -0.0002891   0.0004422  -0.0003581   0.0067855  -0.0058640
    3  -0.0002312   0.0011955   0.0004862  -0.0071884   0.0036386   0.0040960
           13          14          15          16
    1  -0.0052676  -0.0002230   0.0006798   0.0000331
    2  -0.0009873  -0.0004789   0.0005003  -0.0003670
    3  -0.0065800  -0.0001063   0.0010480   0.0005363
 Max gradient component =       8.924E-02
 RMS gradient           =       2.115E-02
 Gradient time:  CPU 0.13 s  wall 0.13 s
-taking node optimization step
Magnitude of Displacement (Angstroms): 0.1117874
-performing optimization step: 2
 ----------------------------------------------------------------
             Standard Nuclear Orientation (Angstroms)
    I     Atom           X                Y                Z
 ----------------------------------------------------------------
    1      C       2.0271990492    -0.3420010722     0.5435778094
    2      C       0.7562899389     0.3799978773     0.0155648866
    3      C       0.4433825743     0.1995344511    -1.4783797908
    4      C      -0.6336475671    -0.4696676895    -1.3423210806
    5      C      -0.7476206757    -0.3628180563     0.1822836224
    6      C      -1.9426321274     0.4619970557     0.7341222896
    7      H       2.0537703743    -0.2711005725     1.6246269796
    8      H       2.9509359411     0.0890228854     0.1577608329
    9      H       1.9987624474    -1.3898433905     0.2629464009
   10      H       0.8467028881     1.4677467126     0.2838800937
   11      H       0.9744632997     0.6044773449    -2.3288250014
   12      H      -1.2700884155    -1.0171603213    -2.0238227195
   13      H      -0.7842861079    -1.3789738509     0.6639007714
   14      H      -1.8241648864     0.5955411057     1.8032415413
   15      H      -2.9039398302    -0.0221311996     0.5627647846
   16      H      -1.9651134897     1.4380834108     0.2607415967
 ----------------------------------------------------------------
 Nuclear Repulsion Energy =         228.62356819 hartrees
 There are       23 alpha and       23 beta electrons
 Applying Cartesian multipole field
    Component          Value
    ---------          -----
     (2,0,0)        1.00000E-11
     (0,2,0)        2.00000E-11
     (0,0,2)       -3.00000E-10
 Nucleus-field energy     =    -0.0000000444 hartrees
 Requested basis set is STO-3G
 There are 22 shells and 40 basis functions
 A cutoff of  1.0D-11 yielded    244 shell pairs
 There are       847 function pairs
 Smallest overlap matrix eigenvalue = 1.55E-01
 Guess from superposition of atomic densities
 Warning:  Energy on first SCF cycle will be non-variational
 SAD guess density has 46.000000 electrons

 -----------------------------------------------------------------------
  General SCF calculation program by
  Eric Jon Sundstrom, Paul Horn, Yuezhi Mao, Dmitri Zuev, Alec White,
  David Stuck, Shaama M.S., Shane Yost, Joonho Lee, David Small,
  Daniel Levine, Susi Lehtola, Hugh Burton, Evgeny Epifanovsky,
  Bang C. Huynh
 -----------------------------------------------------------------------
 Hartree-Fock
 A restricted SCF calculation will be
 performed using DIIS
 SCF converges when DIIS error is below 1.0e-08
 ---------------------------------------
  Cycle       Energy         DIIS error
 ---------------------------------------
    1    -229.3574004704      1.68e-01  
    2    -230.1427209855      1.05e-02  
    3    -230.1819140435      2.81e-03  
    4    -230.1846825704      5.07e-04  
    5    -230.1847630850      3.59e-05  
    6    -230.1847635740      9.12e-06  
    7    -230.1847636101      2.24e-06  
    8    -230.1847636122      8.11e-07  
    9    -230.1847636124      1.67e-07  
   10    -230.1847636125      3.93e-08  
   11    -230.1847636124      1.20e-08  
   12    -230.1847636127      2.27e-09  Convergence criterion met
 ---------------------------------------
 SCF time:   CPU 0.70s  wall 1.00s 
 SCF   energy in the final basis set =     -230.1847636127
 Total energy in the final basis set =     -230.1847636127
 
 --------------------------------------------------------------
 
                    Orbital Energies (a.u.)
 --------------------------------------------------------------
 
 Alpha MOs
 -- Occupied --
-11.0455 -11.0449 -11.0362 -11.0360 -11.0066 -11.0052  -1.0934  -0.9480
 -0.9309  -0.7850  -0.7808  -0.6479  -0.6212  -0.5639  -0.5506  -0.5324
 -0.5256  -0.4839  -0.4539  -0.4363  -0.3759  -0.3717  -0.3033
 -- Virtual --
  0.3417   0.4797   0.5754   0.6042   0.6446   0.6809   0.6843   0.6980
  0.7193   0.7430   0.7439   0.7578   0.7668   0.7853   0.8033   0.8671
  1.2230
 --------------------------------------------------------------
 
          Ground-State Mulliken Net Atomic Charges

     Atom                 Charge (a.u.)
  ----------------------------------------
      1 C                    -0.183266
      2 C                    -0.016736
      3 C                    -0.077568
      4 C                    -0.077915
      5 C                    -0.016002
      6 C                    -0.183182
      7 H                     0.060539
      8 H                     0.061737
      9 H                     0.059884
     10 H                     0.040357
     11 H                     0.054921
     12 H                     0.054791
     13 H                     0.040082
     14 H                     0.060743
     15 H                     0.061684
     16 H                     0.059930
  ----------------------------------------
  Sum of atomic charges =     0.000000

 -----------------------------------------------------------------
                    Cartesian Multipole Moments
 -----------------------------------------------------------------
    Charge (ESU x 10^10)
                 0.0000
    Dipole Moment (Debye)
         X       0.0074      Y       0.0163      Z       0.1323
       Tot       0.1335
    Quadrupole Moments (Debye-Ang)
        XX     -35.5879     XY       0.7867     YY     -36.2311
        XZ      -0.1261     YZ      -0.0617     ZZ     -36.2627
    Octopole Moments (Debye-Ang^2)
       XXX       1.0253    XXY       0.3305    XYY       0.2125
       YYY       1.5566    XXZ       4.5045    XYZ      -0.9028
       YYZ       5.1404    XZZ       0.6726    YZZ       0.7041
       ZZZ      15.8551
    Hexadecapole Moments (Debye-Ang^3)
      XXXX    -466.5126   XXXY      21.3723   XXYY     -95.7313
      XYYY      15.6317   YYYY     -96.7903   XXXZ       5.3622
      XXYZ      -2.4296   XYYZ       2.7323   YYYZ      -8.2937
      XXZZ    -118.4571   XYZZ       8.6765   YYZZ     -57.3743
      XZZZ       5.4196   YZZZ      -7.9433   ZZZZ    -235.9622
 -----------------------------------------------------------------
 Calculating analytic gradient of the SCF energy
 Gradient of SCF Energy
            1           2           3           4           5           6
    1   0.0146361   0.0327076  -0.0577007   0.0576807  -0.0342179  -0.0133387
    2   0.0046146  -0.0157908  -0.0365811   0.0355181   0.0168909  -0.0041966
    3   0.0002140   0.0028862   0.0030010  -0.0087969  -0.0017249   0.0036594
            7           8           9          10          11          12
    1  -0.0014695   0.0063438  -0.0020211   0.0134964  -0.0046138   0.0045994
    2   0.0016706  -0.0027326   0.0016253   0.0257211   0.0085193  -0.0079489
    3  -0.0030560   0.0024533  -0.0012720  -0.0040123   0.0015916   0.0025978
           13          14          15          16
    1  -0.0129929   0.0007027  -0.0057646   0.0019526
    2  -0.0263639  -0.0019629   0.0029885  -0.0019716
    3   0.0035953  -0.0025560   0.0026218  -0.0012023
 Max gradient component =       5.770E-02
 RMS gradient           =       1.747E-02
 Gradient time:  CPU 0.15 s  wall 0.15 s
-taking optimization step
Magnitude of Displacement (Angstroms): 0.1256438
-performing optimization step: 3
 ----------------------------------------------------------------
             Standard Nuclear Orientation (Angstroms)
    I     Atom           X                Y                Z
 ----------------------------------------------------------------
    1      C       2.0216462684    -0.3505671789     0.5397819881
    2      C       0.7062899389     0.3750668656     0.0374460726
    3      C       0.4858615986     0.2366909322    -1.4880651905
    4      C      -0.6774483679    -0.5070961478    -1.3420446251
    5      C      -0.6976206757    -0.3557412407     0.1971718169
    6      C      -1.9388899842     0.4695234469     0.7271786232
    7      H       2.0745492618    -0.2748097906     1.6221373165
    8      H       2.9551910326     0.0838665511     0.1415529744
    9      H       2.0034311960    -1.3945087397     0.2593006145
   10      H       0.8475841122     1.4449058502     0.2960646628
   11      H       0.9680271101     0.6109984208    -2.3251946238
   12      H      -1.2628411886    -1.0231481729    -2.0201095743
   13      H      -0.7844850467    -1.3536467573     0.6707918724
   14      H      -1.8446891854     0.5987761513     1.8024986605
   15      H      -2.9106234829    -0.0197755144     0.5466904615
   16      H      -1.9703916733     1.4421727709     0.2568618334
 ----------------------------------------------------------------
 Nuclear Repulsion Energy =         227.70799523 hartrees
 There are       23 alpha and       23 beta electrons
 Applying Cartesian multipole field
    Component          Value
    ---------          -----
     (2,0,0)        1.00000E-11
     (0,2,0)        2.00000E-11
     (0,0,2)       -3.00000E-10
 Nucleus-field energy     =    -0.0000000444 hartrees
 Requested basis set is STO-3G
 There are 22 shells and 40 basis functions
 A cutoff of  1.0D-11 yielded    244 shell pairs
 There are       847 function pairs
 Smallest overlap matrix eigenvalue = 1.90E-01
 Guess from superposition of atomic densities
 Warning:  Energy on first SCF cycle will be non-variational
 SAD guess density has 46.000000 electrons

 -----------------------------------------------------------------------
  General SCF calculation program by
  Eric Jon Sundstrom, Paul Horn, Yuezhi Mao, Dmitri Zuev, Alec White,
  David Stuck, Shaama M.S., Shane Yost, Joonho Lee, David Small,
  Daniel Levine, Susi Lehtola, Hugh Burton, Evgeny Epifanovsky,
  Bang C. Huynh
 -----------------------------------------------------------------------
 Hartree-Fock
 A restricted SCF calculation will be
 performed using DIIS
 SCF converges when DIIS error is below 1.0e-08
 ---------------------------------------
  Cycle       Energy         DIIS error
 ---------------------------------------
    1    -229.1994181698      1.61e-01  
    2    -230.1309917235      1.07e-02  
    3    -230.1709770994      2.91e-03  
    4    -230.1738541767      6.50e-04  
    5    -230.1739874034      4.10e-05  
    6    -230.1739880318      1.06e-05  
    7    -230.1739880852      1.89e-06  
    8    -230.1739880875      5.71e-07  
    9    -230.1739880879      1.74e-07  
   10    -230.1739880880      5.06e-08  
   11    -230.1739880881      1.57e-08  
   12    -230.1739880882      2.57e-09  Convergence criterion met
 ---------------------------------------
 SCF time:   CPU 0.46s  wall 1.00s 
 SCF   energy in the final basis set =     -230.1739880882
 Total energy in the final basis set =     -230.1739880882
 
 --------------------------------------------------------------
 
                    Orbital Energies (a.u.)
 --------------------------------------------------------------
 
 Alpha MOs
 -- Occupied --
-11.0509 -11.0505 -11.0344 -11.0343 -10.9977 -10.9971  -1.0808  -0.9409
 -0.9149  -0.7907  -0.7857  -0.6644  -0.6235  -0.5609  -0.5441  -0.5262
 -0.5207  -0.4824  -0.4305  -0.4276  -0.4051  -0.3782  -0.2685
 -- Virtual --
  0.3063   0.5292   0.5531   0.5782   0.6672   0.6778   0.6883   0.7000
  0.7281   0.7382   0.7568   0.7592   0.7643   0.7881   0.8133   0.8158
  1.1362
 --------------------------------------------------------------
 
          Ground-State Mulliken Net Atomic Charges

     Atom                 Charge (a.u.)
  ----------------------------------------
      1 C                    -0.176892
      2 C                    -0.019325
      3 C                    -0.083761
      4 C                    -0.084734
      5 C                    -0.019302
      6 C                    -0.177024
      7 H                     0.056466
      8 H                     0.057466
      9 H                     0.058130
     10 H                     0.047902
     11 H                     0.060125
     12 H                     0.060360
     13 H                     0.048054
     14 H                     0.056531
     15 H                     0.057658
     16 H                     0.058346
  ----------------------------------------
  Sum of atomic charges =     0.000000

 -----------------------------------------------------------------
                    Cartesian Multipole Moments
 -----------------------------------------------------------------
    Charge (ESU x 10^10)
                 0.0000
    Dipole Moment (Debye)
         X       0.0084      Y       0.0153      Z       0.1268
       Tot       0.1280
    Quadrupole Moments (Debye-Ang)
        XX     -35.6821     XY       0.8496     YY     -36.2378
        XZ      -0.1264     YZ      -0.0668     ZZ     -36.2824
    Octopole Moments (Debye-Ang^2)
       XXX       1.0829    XXY       0.3260    XYY       0.2281
       YYY       1.5450    XXZ       4.4231    XYZ      -0.8835
       YYZ       5.0595    XZZ       0.6676    YZZ       0.6617
       ZZZ      15.3113
    Hexadecapole Moments (Debye-Ang^3)
      XXXX    -464.4533   XXXY      21.3089   XXYY     -95.6853
      XYYY      16.1514   YYYY     -98.1549   XXXZ       5.2045
      XXYZ      -2.4087   XYYZ       2.6747   YYYZ      -8.2820
      XXZZ    -118.4498   XYZZ       8.8353   YYZZ     -57.7119
      XZZZ       5.3317   YZZZ      -7.8833   ZZZZ    -236.1360
 -----------------------------------------------------------------
 Calculating analytic gradient of the SCF energy
 Gradient of SCF Energy
            1           2           3           4           5           6
    1   0.0144885  -0.0398085   0.1213175  -0.1276820   0.0396778  -0.0141802
    2  -0.0082781  -0.0147235   0.0782004  -0.0873962   0.0172850   0.0081750
    3  -0.0004982   0.0259046  -0.0584732  -0.0290418   0.0155936  -0.0009819
            7           8           9          10          11          12
    1  -0.0004799   0.0190416   0.0000878   0.0203959  -0.0308748   0.0361234
    2   0.0031903  -0.0006487   0.0053611   0.0145695  -0.0135894   0.0206325
    3  -0.0013325   0.0002173  -0.0006209  -0.0122323   0.0350776   0.0295126
           13          14          15          16
    1  -0.0206639   0.0002895  -0.0177468   0.0000143
    2  -0.0150834  -0.0031395   0.0009462  -0.0055013
    3  -0.0065110   0.0000375   0.0027081   0.0006404
 Max gradient component =       1.277E-01
 RMS gradient           =       3.576E-02
 Gradient time:  CPU 0.15 s  wall 0.16 s
-taking optimization step
Magnitude of Displacement (Angstroms): 0.1632042
 ----------------------------------------------------------------
             Standard Nuclear Orientation (Angstroms)
    I     Atom           X                Y                Z
 ----------------------------------------------------------------
    1      C       2.0216462684    -0.3505671789     0.5397819881
    2      C       0.7062899389     0.3750668656     0.0374460726
    3      C       0.4858615986     0.2366909322    -1.4880651905
    4      C      -0.6774483679    -0.5070961478    -1.3420446251
    5      C      -0.6976206757    -0.3557412407     0.1971718169
    6      C      -1.9388899842     0.4695234469     0.7271786232
    7      H       2.0745492618    -0.2748097906     1.6221373165
    8      H       2.9551910326     0.0838665511     0.1415529744
    9      H       2.0034311960    -1.3945087397     0.2593006145
   10      H       0.8475841122     1.4449058502     0.2960646628
   11      H       0.9680271101     0.6109984208    -2.3251946238
   12      H      -1.2628411886    -1.0231481729    -2.0201095743
   13      H      -0.7844850467    -1.3536467573     0.6707918724
   14      H      -1.8446891854     0.5987761513     1.8024986605
   15      H      -2.9106234829    -0.0197755144     0.5466904615
   16      H      -1.9703916733     1.4421727709     0.2568618334
 ----------------------------------------------------------------
 Nuclear Repulsion Energy =         227.70799523 hartrees
 There are       23 alpha and       23 beta electrons
 Applying Cartesian multipole field
    Component          Value
    ---------          -----
     (2,0,0)        1.00000E-11
     (0,2,0)        2.00000E-11
     (0,0,2)       -3.00000E-10
 Nucleus-field energy     =    -0.0000000444 hartrees
 Requested basis set is STO-3G
 There are 22 shells and 40 basis functions
 A cutoff of  1.0D-11 yielded    244 shell pairs
 There are       847 function pairs
 Smallest overlap matrix eigenvalue = 1.90E-01
 Guess from superposition of atomic densities
 Warning:  Energy on first SCF cycle will be non-variational
 SAD guess density has 46.000000 electrons

 -----------------------------------------------------------------------
  General SCF calculation program by
  Eric Jon Sundstrom, Paul Horn, Yuezhi Mao, Dmitri Zuev, Alec White,
  David Stuck, Shaama M.S., Shane Yost, Joonho Lee, David Small,
  Daniel Levine, Susi Lehtola, Hugh Burton, Evgeny Epifanovsky,
  Bang C. Huynh
 -----------------------------------------------------------------------
 Hartree-Fock
 A restricted SCF calculation will be
 performed using DIIS
 SCF converges when DIIS error is below 1.0e-08
 ---------------------------------------
  Cycle       Energy         DIIS error
 ---------------------------------------
    1    -229.1994181698      1.61e-01  
    2    -230.1309917235      1.07e-02  
    3    -230.1709770994      2.91e-03  
    4    -230.1738541767      6.50e-04  
    5    -230.1739874034      4.10e-05  
    6    -230.1739880318      1.06e-05  
    7    -230.1739880852      1.89e-06  
    8    -230.1739880875      5.71e-07  
    9    -230.1739880879      1.74e-07  
   10    -230.1739880880      5.06e-08  
   11    -230.1739880881      1.57e-08  
   12    -230.1739880882      2.57e-09  Convergence criterion met
 ---------------------------------------
 SCF time:   CPU 0.65s  wall 1.00s 
 SCF   energy in the final basis set =     -230.1739880882
 Total energy in the final basis set =     -230.1739880882
 
 --------------------------------------------------------------
 
                    Orbital Energies (a.u.)
 --------------------------------------------------------------
 
 Alpha MOs
 -- Occupied --
-11.0509 -11.0505 -11.0344 -11.0343 -10.9977 -10.9971  -1.0808  -0.9409
 -0.9149  -0.7907  -0.7857  -0.6644  -0.6235  -0.5609  -0.5441  -0.5262
 -0.5207  -0.4824  -0.4305  -0.4276  -0.4051  -0.3782  -0.2685
 -- Virtual --
  0.3063   0.5292   0.5531   0.5782   0.6672   0.6778   0.6883   0.7000
  0.7281   0.7382   0.7568   0.7592   0.7643   0.7881   0.8133   0.8158
  1.1362
 --------------------------------------------------------------
 
          Ground-State Mulliken Net Atomic Charges

     Atom                 Charge (a.u.)
  ----------------------------------------
      1 C                    -0.176892
      2 C                    -0.019325
      3 C                    -0.083761
      4 C                    -0.084734
      5 C                    -0.019302
[...]
 Nuclear Repulsion Energy =         222.55464629 hartrees
 There are       23 alpha and       23 beta electrons
 Applying Cartesian multipole field
    Component          Value
    ---------          -----
     (2,0,0)        1.00000E-11
     (0,2,0)        2.00000E-11
     (0,0,2)       -3.00000E-10
 Nucleus-field energy     =    -0.0000000268 hartrees
 Requested basis set is STO-3G
 There are 22 shells and 40 basis functions
 A cutoff of  1.0D-11 yielded    243 shell pairs
 There are       846 function pairs
 Smallest overlap matrix eigenvalue = 1.64E-01
 Guess from superposition of atomic densities
 Warning:  Energy on first SCF cycle will be non-variational
 SAD guess density has 46.000000 electrons

 -----------------------------------------------------------------------
  General SCF calculation program by
  Eric Jon Sundstrom, Paul Horn, Yuezhi Mao, Dmitri Zuev, Alec White,
  David Stuck, Shaama M.S., Shane Yost, Joonho Lee, David Small,
  Daniel Levine, Susi Lehtola, Hugh Burton, Evgeny Epifanovsky,
  Bang C. Huynh
 -----------------------------------------------------------------------
 Hartree-Fock
 A restricted SCF calculation will be
 performed using DIIS
 SCF converges when DIIS error is below 1.0e-08
 ---------------------------------------
  Cycle       Energy         DIIS error
 ---------------------------------------
    1    -229.1516392943      1.64e-01  
    2    -229.9622444318      1.02e-02  
    3    -230.0018746158      2.81e-03  
    4    -230.0050669079      5.44e-04  
    5    -230.0051685321      1.13e-04  
    6    -230.0051803698      6.20e-05  
    7    -230.0051848331      2.17e-05  
    8    -230.0051855897      6.96e-06  
    9    -230.0051856450      2.72e-06  
   10    -230.0051856506      1.00e-06  
   11    -230.0051856514      1.91e-07  
   12    -230.0051856516      3.15e-08  
   13    -230.0051856515      8.59e-09  Convergence criterion met
 ---------------------------------------
 SCF time:   CPU 0.56s  wall 0.00s 
 SCF   energy in the final basis set =     -230.0051856515
 Total energy in the final basis set =     -230.0051856515
 
 --------------------------------------------------------------
 
                    Orbital Energies (a.u.)
 --------------------------------------------------------------
 
 Alpha MOs
 -- Occupied --
-11.0413 -11.0412 -11.0366 -11.0359 -11.0077 -11.0067  -1.0750  -0.9556
 -0.9118  -0.8178  -0.7532  -0.6399  -0.6154  -0.5681  -0.5337  -0.5104
 -0.5098  -0.4742  -0.4728  -0.4361  -0.4298  -0.2591  -0.2583
 -- Virtual --
  0.2218   0.2886   0.6115   0.6188   0.6630   0.6643   0.6749   0.6773
  0.7155   0.7197   0.7534   0.7547   0.7665   0.7812   0.8273   0.9249
  1.1318
 --------------------------------------------------------------
 
          Ground-State Mulliken Net Atomic Charges

     Atom                 Charge (a.u.)
  ----------------------------------------
      1 C                    -0.169696
      2 C                    -0.019971
      3 C                    -0.067683
      4 C                    -0.069219
      5 C                    -0.022882
      6 C                    -0.169329
      7 H                     0.058312
      8 H                     0.058316
      9 H                     0.059128
     10 H                     0.034044
     11 H                     0.048530
     12 H                     0.049548
     13 H                     0.035332
     14 H                     0.058048
     15 H                     0.058145
     16 H                     0.059379
  ----------------------------------------
  Sum of atomic charges =     0.000000

 -----------------------------------------------------------------
                    Cartesian Multipole Moments
 -----------------------------------------------------------------
    Charge (ESU x 10^10)
                -0.0000
    Dipole Moment (Debye)
         X       0.0064      Y       0.0124      Z       0.0025
       Tot       0.0141
    Quadrupole Moments (Debye-Ang)
        XX     -34.3677     XY       0.4895     YY     -35.6937
        XZ      -0.2145     YZ      -0.1727     ZZ     -36.9492
    Octopole Moments (Debye-Ang^2)
       XXX       1.0964    XXY       0.5586    XYY       0.0718
       YYY       0.9773    XXZ       4.5177    XYZ      -0.4082
       YYZ       1.4722    XZZ       0.2218    YZZ       0.9533
       ZZZ      10.0780
    Hexadecapole Moments (Debye-Ang^3)
      XXXX    -569.5681   XXXY      18.7675   XXYY    -118.9358
      XYYY      17.9781   YYYY    -122.7404   XXXZ      11.2897
      XXYZ      -0.9547   XYYZ       4.4106   YYYZ      -3.1987
      XXZZ    -125.3160   XYZZ       6.8678   YYZZ     -47.5937
      XZZZ      11.8727   YZZZ      -4.1741   ZZZZ    -170.9531
 -----------------------------------------------------------------
 Calculating analytic gradient of the SCF energy
 Gradient of SCF Energy
            1           2           3           4           5           6
    1   0.0085657   0.0015174  -0.0209645   0.0270445  -0.0110258  -0.0056744
    2   0.0038957   0.0106715  -0.0939283   0.0932127  -0.0202269  -0.0029960
    3   0.0022218  -0.0354240   0.0590102   0.0341178  -0.0248629   0.0020208
            7           8           9          10          11          12
    1   0.0111345   0.0205157   0.0070299   0.0185004  -0.0130383   0.0140058
    2  -0.0007726  -0.0048344  -0.0043273   0.0035276   0.0372406  -0.0293209
    3  -0.0013290  -0.0042330  -0.0036925  -0.0051585  -0.0109263  -0.0016112
           13          14          15          16
    1  -0.0167928  -0.0111411  -0.0213908  -0.0082859
    2  -0.0003844   0.0004137   0.0042104   0.0036185
    3  -0.0052307   0.0005208  -0.0022917  -0.0031316
 Max gradient component =       9.393E-02
 RMS gradient           =       2.532E-02
 Gradient time:  CPU 0.12 s  wall 0.12 s
 ----------------------------------------------------------------
             Standard Nuclear Orientation (Angstroms)
    I     Atom           X                Y                Z
 ----------------------------------------------------------------
    1      C       2.2522472617    -0.4143548531     0.3698235886
    2      C       0.9883375315     0.5243078196     0.1105819934
    3      C       0.3835121225     0.3487797442    -1.1724290739
    4      C      -0.5335977227    -0.5760774532    -1.0170690824
    5      C      -0.9635221754    -0.4903785567     0.3451102388
    6      C      -2.1890621301     0.4995143230     0.5790384819
    7      H       2.6618276264    -0.3342595586     1.3781166581
    8      H       3.0982491765    -0.1189632501    -0.2851291661
    9      H       2.0846562854    -1.4697262489     0.1453792204
   10      H       1.3740926228     1.5333164075     0.3582091278
   11      H       0.4769114125     1.1185501147    -1.9879349256
   12      H      -0.7310445686    -1.4619052947    -1.6589973659
   13      H      -1.2984274799    -1.4255061265     0.8215288216
   14      H      -2.4606068809     0.6172067219     1.6300174461
   15      H      -3.1126758156     0.0972346348     0.1117588564
   16      H      -2.0685343409     1.4913778395     0.1394667249
 ----------------------------------------------------------------
 Nuclear Repulsion Energy =         222.50388003 hartrees
 There are       23 alpha and       23 beta electrons
 Applying Cartesian multipole field
    Component          Value
    ---------          -----
     (2,0,0)        1.00000E-11
     (0,2,0)        2.00000E-11
     (0,0,2)       -3.00000E-10
 Nucleus-field energy     =    -0.0000000267 hartrees
 Requested basis set is STO-3G
 There are 22 shells and 40 basis functions
 A cutoff of  1.0D-11 yielded    243 shell pairs
 There are       846 function pairs
 Smallest overlap matrix eigenvalue = 1.64E-01
 Guess from superposition of atomic densities
 Warning:  Energy on first SCF cycle will be non-variational
 SAD guess density has 46.000000 electrons

 -----------------------------------------------------------------------
  General SCF calculation program by
  Eric Jon Sundstrom, Paul Horn, Yuezhi Mao, Dmitri Zuev, Alec White,
  David Stuck, Shaama M.S., Shane Yost, Joonho Lee, David Small,
  Daniel Levine, Susi Lehtola, Hugh Burton, Evgeny Epifanovsky,
  Bang C. Huynh
 -----------------------------------------------------------------------
 Hartree-Fock
 A restricted SCF calculation will be
 performed using DIIS
 SCF converges when DIIS error is below 1.0e-08
 ---------------------------------------
  Cycle       Energy         DIIS error
 ---------------------------------------
    1    -229.1571226999      1.64e-01  
    2    -229.9611788782      1.02e-02  
    3    -230.0007409653      2.80e-03  
    4    -230.0039115719      5.35e-04  
    5    -230.0040081171      1.08e-04  
    6    -230.0040185095      5.95e-05  
    7    -230.0040223864      2.11e-05  
    8    -230.0040230955      7.09e-06  
    9    -230.0040231559      2.79e-06  
   10    -230.0040231622      1.04e-06  
   11    -230.0040231632      2.01e-07  
   12    -230.0040231633      3.40e-08  
   13    -230.0040231632      9.12e-09  Convergence criterion met
 ---------------------------------------
 SCF time:   CPU 0.58s  wall 0.00s 
 SCF   energy in the final basis set =     -230.0040231632
 Total energy in the final basis set =     -230.0040231632
 
 --------------------------------------------------------------
 
                    Orbital Energies (a.u.)
 --------------------------------------------------------------
 
 Alpha MOs
 -- Occupied --
-11.0416 -11.0415 -11.0359 -11.0352 -11.0079 -11.0069  -1.0745  -0.9562
 -0.9120  -0.8185  -0.7527  -0.6400  -0.6152  -0.5685  -0.5339  -0.5103
 -0.5100  -0.4750  -0.4732  -0.4366  -0.4307  -0.2590  -0.2555
 -- Virtual --
  0.2196   0.2886   0.6124   0.6198   0.6626   0.6638   0.6762   0.6784
  0.7154   0.7205   0.7533   0.7546   0.7666   0.7829   0.8297   0.9268
  1.1300
 --------------------------------------------------------------
 
          Ground-State Mulliken Net Atomic Charges

     Atom                 Charge (a.u.)
  ----------------------------------------
      1 C                    -0.169560
      2 C                    -0.020366
      3 C                    -0.067499
      4 C                    -0.069028
      5 C                    -0.023279
      6 C                    -0.169191
      7 H                     0.058443
      8 H                     0.058495
      9 H                     0.059348
     10 H                     0.033864
     11 H                     0.048241
     12 H                     0.049289
     13 H                     0.035148
     14 H                     0.058175
     15 H                     0.058320
     16 H                     0.059600
  ----------------------------------------
  Sum of atomic charges =     0.000000

 -----------------------------------------------------------------
                    Cartesian Multipole Moments
 -----------------------------------------------------------------
    Charge (ESU x 10^10)
                -0.0000
    Dipole Moment (Debye)
         X       0.0068      Y       0.0125      Z       0.0048
       Tot       0.0150
    Quadrupole Moments (Debye-Ang)
        XX     -34.3489     XY       0.4712     YY     -35.6982
        XZ      -0.2131     YZ      -0.1696     ZZ     -36.9392
    Octopole Moments (Debye-Ang^2)
       XXX       1.1012    XXY       0.5602    XYY       0.0739
       YYY       0.9811    XXZ       4.5307    XYZ      -0.4053
       YYZ       1.4889    XZZ       0.2207    YZZ       0.9499
       ZZZ      10.0907
    Hexadecapole Moments (Debye-Ang^3)
      XXXX    -570.3853   XXXY      18.5458   XXYY    -119.1379
      XYYY      17.7585   YYYY    -123.0955   XXXZ      11.3562
      XXYZ      -0.9358   XYYZ       4.4304   YYYZ      -3.1507
      XXZZ    -125.3737   XYZZ       6.7913   YYZZ     -47.6053
      XZZZ      11.9365   YZZZ      -4.1114   ZZZZ    -170.5315
 -----------------------------------------------------------------
 Calculating analytic gradient of the SCF energy
 Gradient of SCF Energy
            1           2           3           4           5           6
    1   0.0083183   0.0007987  -0.0214706   0.0274624  -0.0102259  -0.0054502
    2   0.0039795   0.0100465  -0.0944444   0.0935992  -0.0194855  -0.0031184
    3   0.0020169  -0.0346628   0.0584306   0.0333768  -0.0243666   0.0018002
            7           8           9          10          11          12
    1   0.0111470   0.0201379   0.0071288   0.0174314  -0.0123510   0.0132693
    2  -0.0007669  -0.0047107  -0.0044311   0.0030362   0.0368745  -0.0290110
    3  -0.0013252  -0.0042192  -0.0037086  -0.0044689  -0.0112443  -0.0018977
           13          14          15          16
    1  -0.0156420  -0.0111524  -0.0210133  -0.0083884
    2   0.0002262   0.0004067   0.0040818   0.0037174
    3  -0.0047956   0.0005257  -0.0023078  -0.0031537
 Max gradient component =       9.444E-02
 RMS gradient           =       2.522E-02
 Gradient time:  CPU 0.12 s  wall 0.12 s
 E1 = -230.0051857, E2 = -230.0040232, Emax = -230.0045955
 Iteration 5, Curvature = -0.4217665
 Curvature, final (in Hartree/Bohr^2) = -0.1181066
 ----------------------------------------------------------------
             Standard Nuclear Orientation (Angstroms)
    I     Atom           X                Y                Z
 ----------------------------------------------------------------
    1      C       2.2518950795    -0.4142965976     0.3698340281
    2      C       0.9856879703     0.5229857078     0.1120246170
    3      C       0.3836714425     0.3479733503    -1.1734854450
    4      C      -0.5338652697    -0.5755011200    -1.0182323685
    5      C      -0.9607266997    -0.4888430599     0.3459032136
    6      C      -2.1887176399     0.4994495045     0.5789994982
    7      H       2.6613464195    -0.3342282370     1.3781708516
    8      H       3.0980447803    -0.1186800487    -0.2850233163
    9      H       2.0846679107    -1.4696955575     0.1454238380
   10      H       1.3722148116     1.5323517284     0.3590887250
   11      H       0.4781064932     1.1176974144    -1.9887425730
   12      H      -0.7323790542    -1.4611837051    -1.6598132111
   13      H      -1.2964613585    -1.4244140432     0.8219408237
   14      H      -2.4601190711     0.6171738937     1.6300023883
   15      H      -3.1124697446     0.0969815379     0.1118833456
   16      H      -2.0685418760     1.4913538951     0.1395106782
 ----------------------------------------------------------------
 Nuclear Repulsion Energy =         222.52933088 hartrees
 There are       23 alpha and       23 beta electrons
 Requested basis set is STO-3G
 There are 22 shells and 40 basis functions
 Geometry Optimization Parameters
   NAtoms,    NIC,     NZ,  NCons,   NDum,   NFix, NCnnct, MaxDiis
       16      95       0       0       0       0       0       0


** GEOMETRY OPTIMIZATION IN DELOCALIZED INTERNAL COORDINATES **
   Searching for a Minimum

   Optimization Cycle:   1

                       Coordinates (Angstroms)
     ATOM                X               Y               Z
      1  C         2.2518950795   -0.4142965976    0.3698340281
      2  C         0.9856879703    0.5229857078    0.1120246170
      3  C         0.3836714425    0.3479733503   -1.1734854450
      4  C        -0.5338652697   -0.5755011200   -1.0182323685
      5  C        -0.9607266997   -0.4888430599    0.3459032136
      6  C        -2.1887176399    0.4994495045    0.5789994982
      7  H         2.6613464195   -0.3342282370    1.3781708516
      8  H         3.0980447803   -0.1186800487   -0.2850233163
      9  H         2.0846679107   -1.4696955575    0.1454238380
     10  H         1.3722148116    1.5323517284    0.3590887250
     11  H         0.4781064932    1.1176974144   -1.9887425730
     12  H        -0.7323790542   -1.4611837051   -1.6598132111
     13  H        -1.2964613585   -1.4244140432    0.8219408237
     14  H        -2.4601190711    0.6171738937    1.6300023883
     15  H        -3.1124697446    0.0969815379    0.1118833456
     16  H        -2.0685418760    1.4913538951    0.1395106782
   Point Group: c1    Number of degrees of freedom:    42


   Energy is   -230.004023163


 Attempting to generate delocalized internal coordinates
 Initial Hessian constructed with Jon Baker's OPTIMIZE code

 42 Hessian modes will be used to form the next step
  Hessian Eigenvalues:
     0.002000    0.002000    0.018176    0.018407    0.028978    0.029677
     0.029927    0.029978    0.034177    0.060845    0.061112    0.068575
     0.068682    0.120006    0.120049    0.152156    0.153379    0.160000
     0.160000    0.160000    0.160000    0.160000    0.160000    0.220688
     0.220797    0.231926    0.232122    0.240597    0.242651    0.310439
     0.324401    0.325336    0.325954    0.327358    0.334510    0.345968
     0.346003    0.346349    0.346697    0.407052    0.409547    0.642224

 Minimum search - taking simple RFO step
 Searching for Lamda that Minimizes Along All modes
 Value Taken    Lamda =  -0.22317030
 Calculated Step too Large.  Step scaled by  0.383541
 Step Taken.  Stepsize is  0.300000

                             Maximum     Tolerance    Cnvgd?
         Gradient           0.250266      0.000300      NO
         Displacement       0.264090      0.001200      NO
         Energy change     *********      0.000001      NO


 New Cartesian Coordinates Obtained by Inverse Iteration

 Displacement from previous Coordinates is:  1.998248
 ----------------------------------------------------------------
             Standard Nuclear Orientation (Angstroms)
    I     Atom           X                Y                Z
 ----------------------------------------------------------------
    1      C       2.0058911594    -0.4137671873     0.4421884913
    2      C       0.7743772590     0.4882852192     0.0382108241
    3      C       0.3488643959     0.3594300604    -1.3257143936
    4      C      -0.5191682812    -0.6148984856    -1.1692299236
    5      C      -0.7602490006    -0.4712827470     0.2383415785
    6      C      -1.9352411180     0.5098892477     0.6165222431
    7      H       2.2478513193    -0.3638461587     1.5040328258
    8      H       2.9169666498    -0.0569805968    -0.0689561648
    9      H       1.9045972217    -1.4605636157     0.1539642375
   10      H       1.0601173096     1.4995404596     0.3825556305
   11      H       0.4600424173     1.1500687493    -2.1009825981
   12      H      -0.7317775423    -1.5173462679    -1.7674943786
   13      H      -0.9854342821    -1.3929119358     0.7973651794
   14      H      -2.0335331624     0.6655686843     1.6915299855
   15      H      -2.9033852343     0.0759749080     0.3099231761
   16      H      -1.8875649174     1.4819643295     0.1252283802
 ----------------------------------------------------------------
 Nuclear Repulsion Energy =         230.58636586 hartrees
 There are       23 alpha and       23 beta electrons










































 Eigenvalues after right structure
 -0.13146707 -0.00000000 -0.00000000 0.00000000 0.00000000 0.00000000 0.00000054 0.00106883 0.00109490 0.00166145 0.00211228 0.00642910 0.01512046 0.02354587 0.03480354 0.04217919 0.04949511 0.05473755 0.05704727 0.06288451 0.06873313 0.08777324 0.09632467 0.10049362 0.11004738 0.11806203 0.11952523 0.12307309 0.13079921 0.16001120 0.20551236 0.23646062 0.24251098 0.31940343 0.37764841 0.40163465 0.51318074 0.67161384 0.78247502 0.83603919 0.83850080 0.86728707 0.87242303 0.93755061 0.95352288 1.09914650 1.24861267 1.64009884
 Total job time:  45.09s(wall), 41.86s(cpu) 
 Thu Jun 17 16:20:39 2021

        *************************************************************
        *                                                           *
        *  Thank you very much for using Q-Chem.  Have a nice day.  *
        *                                                           *
        *************************************************************


