 Entering Gaussian System, Link 0=g16
 Input=/gpfs1/home/osl/test/Benzene/Gaussian 16 Optimisation Frequencies PBE1PBE (GD3BJ) Gas Phase 6-31G(d,p)/Input/Benzene.com
 Output=/gpfs1/home/osl/test/Benzene/Gaussian 16 Optimisation Frequencies PBE1PBE (GD3BJ) Gas Phase 6-31G(d,p)/Output/Benzene.log
 Initial command:
 /gpfs1/apps/software/Gaussian16/AVX/g16/l1.exe "/scratch/tmp/osl/7882745a9a924a698871eca000df4600/Gau-21169.inp" -scrdir="/scratch/tmp/osl/7882745a9a924a698871eca000df4600/"
 Entering Link 1 = /gpfs1/apps/software/Gaussian16/AVX/g16/l1.exe PID=     21171.
  
 Copyright (c) 1988-2019, Gaussian, Inc.  All Rights Reserved.
  
 This is part of the Gaussian(R) 16 program.  It is based on
 the Gaussian(R) 09 system (copyright 2009, Gaussian, Inc.),
 the Gaussian(R) 03 system (copyright 2003, Gaussian, Inc.),
 the Gaussian(R) 98 system (copyright 1998, Gaussian, Inc.),
 the Gaussian(R) 94 system (copyright 1995, Gaussian, Inc.),
 the Gaussian 92(TM) system (copyright 1992, Gaussian, Inc.),
 the Gaussian 90(TM) system (copyright 1990, Gaussian, Inc.),
 the Gaussian 88(TM) system (copyright 1988, Gaussian, Inc.),
 the Gaussian 86(TM) system (copyright 1986, Carnegie Mellon
 University), and the Gaussian 82(TM) system (copyright 1983,
 Carnegie Mellon University). Gaussian is a federally registered
 trademark of Gaussian, Inc.
  
 This software contains proprietary and confidential information,
 including trade secrets, belonging to Gaussian, Inc.
  
 This software is provided under written license and may be
 used, copied, transmitted, or stored only in accord with that
 written license.
  
 The following legend is applicable only to US Government
 contracts under FAR:
  
                    RESTRICTED RIGHTS LEGEND
  
 Use, reproduction and disclosure by the US Government is
 subject to restrictions as set forth in subparagraphs (a)
 and (c) of the Commercial Computer Software - Restricted
 Rights clause in FAR 52.227-19.
  
 Gaussian, Inc.
 340 Quinnipiac St., Bldg. 40, Wallingford CT 06492
  
  
 ---------------------------------------------------------------
 Warning -- This program may not be used in any manner that
 competes with the business of Gaussian, Inc. or will provide
 assistance to any competitor of Gaussian, Inc.  The licensee
 of this program is prohibited from giving any competitor of
 Gaussian, Inc. access to this program.  By using this program,
 the user acknowledges that Gaussian, Inc. is engaged in the
 business of creating and licensing software in the field of
 computational chemistry and represents and warrants to the
 licensee that it is not a competitor of Gaussian, Inc. and that
 it will not use this program in any manner prohibited above.
 ---------------------------------------------------------------
  

 Cite this work as:
 Gaussian 16, Revision C.01,
 M. J. Frisch, G. W. Trucks, H. B. Schlegel, G. E. Scuseria, 
 M. A. Robb, J. R. Cheeseman, G. Scalmani, V. Barone, 
 G. A. Petersson, H. Nakatsuji, X. Li, M. Caricato, A. V. Marenich, 
 J. Bloino, B. G. Janesko, R. Gomperts, B. Mennucci, H. P. Hratchian, 
 J. V. Ortiz, A. F. Izmaylov, J. L. Sonnenberg, D. Williams-Young, 
 F. Ding, F. Lipparini, F. Egidi, J. Goings, B. Peng, A. Petrone, 
 T. Henderson, D. Ranasinghe, V. G. Zakrzewski, J. Gao, N. Rega, 
 G. Zheng, W. Liang, M. Hada, M. Ehara, K. Toyota, R. Fukuda, 
 J. Hasegawa, M. Ishida, T. Nakajima, Y. Honda, O. Kitao, H. Nakai, 
 T. Vreven, K. Throssell, J. A. Montgomery, Jr., J. E. Peralta, 
 F. Ogliaro, M. J. Bearpark, J. J. Heyd, E. N. Brothers, K. N. Kudin, 
 V. N. Staroverov, T. A. Keith, R. Kobayashi, J. Normand, 
 K. Raghavachari, A. P. Rendell, J. C. Burant, S. S. Iyengar, 
 J. Tomasi, M. Cossi, J. M. Millam, M. Klene, C. Adamo, R. Cammi, 
 J. W. Ochterski, R. L. Martin, K. Morokuma, O. Farkas, 
 J. B. Foresman, and D. J. Fox, Gaussian, Inc., Wallingford CT, 2019.
 
 ******************************************
 Gaussian 16:  ES64L-G16RevC.01  3-Jul-2019
                20-Jun-2022 
 ******************************************
 %Chk="Benzene.chk"
 %Rwf="Benzene.rwf"
 %NProcShared=4
 Will use up to    4 processors via shared memory.
 %Mem=10GB
 ----------------------------------------------------------------------
 #p Opt Freq PBE1PBE/6-31G(d,p) EmpiricalDispersion=(GD3BJ) Symmetry=(T
 ight) Population=(Regular) Density=(Current)
 ----------------------------------------------------------------------
 1/18=20,19=15,26=3,38=1/1,3;
 2/9=110,12=2,40=1/2;
 3/5=1,6=6,7=101,11=2,25=1,30=1,71=1,74=-13,124=41/1,2,3;
 4//1;
 5/5=2,38=5/2;
 6/22=-1,28=1/1;
 7//1,2,3,16;
 1/18=20,19=15,26=3/3(2);
 2/9=110/2;
 99//99;
 2/9=110/2;
 3/5=1,6=6,7=101,11=2,25=1,30=1,71=1,74=-13,124=41/1,2,3;
 4/5=5,16=3,69=1/1;
 5/5=2,38=5/2;
 7//1,2,3,16;
 1/18=20,19=15,26=3/3(-5);
 2/9=110/2;
 6/19=2,22=-1,28=1/1;
 99/9=1/99;
 Leave Link    1 at Mon Jun 20 17:11:27 2022, MaxMem=  1342177280 cpu:               0.3 elap:               0.1
 (Enter /gpfs1/apps/software/Gaussian16/AVX/g16/l101.exe)
 ---------------------------------------------------------------------
 Benzene_Optimisation_Frequencies_PBE1PBE__GD3BJ__Gas_Phase_6_31G_d_p_
 ---------------------------------------------------------------------
 Symbolic Z-matrix:
 Charge = -1 Multiplicity = 2
 C                     1.38269  -0.22179   0.00558 
 C                     0.50635  -1.30704  -0.00813 
 C                    -0.8714   -1.09058  -0.01457 
 C                    -1.37323   0.21092  -0.00446 
 C                    -0.49682   1.29597   0.01059 
 C                     0.88099   1.07954   0.01412 
 H                     2.45619  -0.39043   0.00959 
 H                     0.89725  -2.32088  -0.01414 
 H                    -1.55415  -1.93593  -0.0271 
 H                    -2.44657   0.37942  -0.00832 
 H                    -0.8877    2.31003   0.01913 
 H                     1.56377   1.92487   0.02374 
 
 ITRead=  0  0  0  0  0  0  0  0  0  0  0  0
 MicOpt= -1 -1 -1 -1 -1 -1 -1 -1 -1 -1 -1 -1
 NAtoms=     12 NQM=       12 NQMF=       0 NMMI=      0 NMMIF=      0
                NMic=       0 NMicF=      0.
                    Isotopes and Nuclear Properties:
 (Nuclear quadrupole moments (NQMom) in fm**2, nuclear magnetic moments (NMagM)
  in nuclear magnetons)

  Atom         1           2           3           4           5           6           7           8           9          10
 IAtWgt=          12          12          12          12          12          12           1           1           1           1
 AtmWgt=  12.0000000  12.0000000  12.0000000  12.0000000  12.0000000  12.0000000   1.0078250   1.0078250   1.0078250   1.0078250
 NucSpn=           0           0           0           0           0           0           1           1           1           1
 AtZEff=  -0.0000000  -0.0000000  -0.0000000  -0.0000000  -0.0000000  -0.0000000  -0.0000000  -0.0000000  -0.0000000  -0.0000000
 NQMom=    0.0000000   0.0000000   0.0000000   0.0000000   0.0000000   0.0000000   0.0000000   0.0000000   0.0000000   0.0000000
 NMagM=    0.0000000   0.0000000   0.0000000   0.0000000   0.0000000   0.0000000   2.7928460   2.7928460   2.7928460   2.7928460
 AtZNuc=   6.0000000   6.0000000   6.0000000   6.0000000   6.0000000   6.0000000   1.0000000   1.0000000   1.0000000   1.0000000

  Atom        11          12
 IAtWgt=           1           1
 AtmWgt=   1.0078250   1.0078250
 NucSpn=           1           1
 AtZEff=  -0.0000000  -0.0000000
 NQMom=    0.0000000   0.0000000
 NMagM=    2.7928460   2.7928460
 AtZNuc=   1.0000000   1.0000000
 Leave Link  101 at Mon Jun 20 17:11:29 2022, MaxMem=  1342177280 cpu:               2.0 elap:               0.5
 (Enter /gpfs1/apps/software/Gaussian16/AVX/g16/l103.exe)

 GradGradGradGradGradGradGradGradGradGradGradGradGradGradGradGradGradGrad
 Berny optimization.
 Initialization pass.
                           ----------------------------
                           !    Initial Parameters    !
                           ! (Angstroms and Degrees)  !
 --------------------------                            --------------------------
 ! Name  Definition              Value          Derivative Info.                !
 --------------------------------------------------------------------------------
 ! R1    R(1,2)                  1.395          estimate D2E/DX2                !
 ! R2    R(1,6)                  1.3947         estimate D2E/DX2                !
 ! R3    R(1,7)                  1.0867         estimate D2E/DX2                !
 ! R4    R(2,3)                  1.3947         estimate D2E/DX2                !
 ! R5    R(2,8)                  1.0866         estimate D2E/DX2                !
 ! R6    R(3,4)                  1.3949         estimate D2E/DX2                !
 ! R7    R(3,9)                  1.0867         estimate D2E/DX2                !
 ! R8    R(4,5)                  1.3949         estimate D2E/DX2                !
 ! R9    R(4,10)                 1.0865         estimate D2E/DX2                !
 ! R10   R(5,6)                  1.3947         estimate D2E/DX2                !
 ! R11   R(5,11)                 1.0868         estimate D2E/DX2                !
 ! R12   R(6,12)                 1.0867         estimate D2E/DX2                !
 ! A1    A(2,1,6)              119.9978         estimate D2E/DX2                !
 ! A2    A(2,1,7)              119.9936         estimate D2E/DX2                !
 ! A3    A(6,1,7)              120.0086         estimate D2E/DX2                !
 ! A4    A(1,2,3)              119.9931         estimate D2E/DX2                !
 ! A5    A(1,2,8)              119.9958         estimate D2E/DX2                !
 ! A6    A(3,2,8)              120.0111         estimate D2E/DX2                !
 ! A7    A(2,3,4)              120.0109         estimate D2E/DX2                !
 ! A8    A(2,3,9)              119.9984         estimate D2E/DX2                !
 ! A9    A(4,3,9)              119.9907         estimate D2E/DX2                !
 ! A10   A(3,4,5)              119.9885         estimate D2E/DX2                !
 ! A11   A(3,4,10)             120.0046         estimate D2E/DX2                !
 ! A12   A(5,4,10)             120.0068         estimate D2E/DX2                !
 ! A13   A(4,5,6)              120.0008         estimate D2E/DX2                !
 ! A14   A(4,5,11)             119.9947         estimate D2E/DX2                !
 ! A15   A(6,5,11)             120.0045         estimate D2E/DX2                !
 ! A16   A(1,6,5)              120.0086         estimate D2E/DX2                !
 ! A17   A(1,6,12)             119.9905         estimate D2E/DX2                !
 ! A18   A(5,6,12)             120.001          estimate D2E/DX2                !
 ! D1    D(6,1,2,3)              0.0605         estimate D2E/DX2                !
 ! D2    D(6,1,2,8)           -179.9608         estimate D2E/DX2                !
 ! D3    D(7,1,2,3)           -179.9386         estimate D2E/DX2                !
 ! D4    D(7,1,2,8)              0.0401         estimate D2E/DX2                !
 ! D5    D(2,1,6,5)              0.0776         estimate D2E/DX2                !
 ! D6    D(2,1,6,12)          -179.9355         estimate D2E/DX2                !
 ! D7    D(7,1,6,5)           -179.9233         estimate D2E/DX2                !
 ! D8    D(7,1,6,12)             0.0636         estimate D2E/DX2                !
 ! D9    D(1,2,3,4)             -0.1349         estimate D2E/DX2                !
 ! D10   D(1,2,3,9)            179.8874         estimate D2E/DX2                !
 ! D11   D(8,2,3,4)            179.8864         estimate D2E/DX2                !
 ! D12   D(8,2,3,9)             -0.0913         estimate D2E/DX2                !
 ! D13   D(2,3,4,5)              0.0713         estimate D2E/DX2                !
 ! D14   D(2,3,4,10)          -179.9295         estimate D2E/DX2                !
 ! D15   D(9,3,4,5)           -179.951          estimate D2E/DX2                !
 ! D16   D(9,3,4,10)             0.0483         estimate D2E/DX2                !
 ! D17   D(3,4,5,6)              0.0668         estimate D2E/DX2                !
 ! D18   D(3,4,5,11)          -179.9597         estimate D2E/DX2                !
 ! D19   D(10,4,5,6)          -179.9325         estimate D2E/DX2                !
 ! D20   D(10,4,5,11)            0.0411         estimate D2E/DX2                !
 ! D21   D(4,5,6,1)             -0.1412         estimate D2E/DX2                !
 ! D22   D(4,5,6,12)           179.8719         estimate D2E/DX2                !
 ! D23   D(11,5,6,1)           179.8853         estimate D2E/DX2                !
 ! D24   D(11,5,6,12)           -0.1017         estimate D2E/DX2                !
 --------------------------------------------------------------------------------
 Trust Radius=3.00D-01 FncErr=1.00D-07 GrdErr=1.00D-06 EigMax=2.50D+02 EigMin=1.00D-04
 Number of steps in this run=     64 maximum allowed number of steps=    100.
 GradGradGradGradGradGradGradGradGradGradGradGradGradGradGradGradGradGrad

 Leave Link  103 at Mon Jun 20 17:11:31 2022, MaxMem=  1342177280 cpu:               0.1 elap:               0.1
 (Enter /gpfs1/apps/software/Gaussian16/AVX/g16/l202.exe)
                          Input orientation:                          
 ---------------------------------------------------------------------
 Center     Atomic      Atomic             Coordinates (Angstroms)
 Number     Number       Type             X           Y           Z
 ---------------------------------------------------------------------
      1          6           0        1.382690   -0.221790    0.005580
      2          6           0        0.506350   -1.307040   -0.008130
      3          6           0       -0.871400   -1.090580   -0.014570
      4          6           0       -1.373230    0.210920   -0.004460
      5          6           0       -0.496820    1.295970    0.010590
      6          6           0        0.880990    1.079540    0.014120
      7          1           0        2.456190   -0.390430    0.009590
      8          1           0        0.897250   -2.320880   -0.014140
      9          1           0       -1.554150   -1.935930   -0.027100
     10          1           0       -2.446570    0.379420   -0.008320
     11          1           0       -0.887700    2.310030    0.019130
     12          1           0        1.563770    1.924870    0.023740
 ---------------------------------------------------------------------
                    Distance matrix (angstroms):
                    1          2          3          4          5
     1  C    0.000000
     2  C    1.394965   0.000000
     3  C    2.415807   1.394665   0.000000
     4  C    2.789701   2.415996   1.394933   0.000000
     5  C    2.415818   2.789688   2.415898   1.394867   0.000000
     6  C    1.394717   2.415909   2.789465   2.415855   1.394710
     7  H    1.086673   2.154615   3.400537   3.876374   3.400620
     8  H    2.154581   1.086605   2.154475   3.400762   3.876293
     9  H    3.400643   2.154419   1.086702   2.154579   3.400668
    10  H    3.876194   3.400571   2.154553   1.086492   2.154518
    11  H    3.400730   3.876508   3.400816   2.154660   1.086820
    12  H    2.154360   3.400646   3.876140   3.400645   2.154465
                    6          7          8          9         10
     6  C    0.000000
     7  H    2.154550   0.000000
     8  H    3.400576   2.481430   0.000000
     9  H    3.876166   4.297993   2.481475   0.000000
    10  H    3.400489   4.962867   4.297998   2.481454   0.000000
    11  H    2.154622   4.298160   4.963112   4.298194   2.481549
    12  H    1.086676   2.481376   4.297915   4.962841   4.297938
                   11         12
    11  H    0.000000
    12  H    2.481547   0.000000
 Stoichiometry    C6H6(1-,2)
 Framework group  C1[X(C6H6)]
 Deg. of freedom    30
 Full point group                 C1      NOp   1
 Largest Abelian subgroup         C1      NOp   1
 Largest concise Abelian subgroup C1      NOp   1
                         Standard orientation:                         
 ---------------------------------------------------------------------
 Center     Atomic      Atomic             Coordinates (Angstroms)
 Number     Number       Type             X           Y           Z
 ---------------------------------------------------------------------
      1          6           0       -0.755666    1.172368   -0.000057
      2          6           0       -1.393198   -0.068390   -0.000693
      3          6           0       -0.637459   -1.240545    0.000743
      4          6           0        0.755807   -1.172389   -0.000030
      5          6           0        1.393137    0.068363   -0.000736
      6          6           0        0.637383    1.240562    0.000740
      7          1           0       -1.344503    2.085674   -0.000167
      8          1           0       -2.478504   -0.121480   -0.001956
      9          1           0       -1.134021   -2.207161    0.002097
     10          1           0        1.344453   -2.085604   -0.000070
     11          1           0        2.478652    0.121582   -0.002000
     12          1           0        1.133896    2.207172    0.002295
 ---------------------------------------------------------------------
 Rotational constants (GHZ):           5.7007101           5.7002647           2.8502451
 Leave Link  202 at Mon Jun 20 17:11:32 2022, MaxMem=  1342177280 cpu:               0.2 elap:               0.1
 (Enter /gpfs1/apps/software/Gaussian16/AVX/g16/l301.exe)
 Standard basis: 6-31G(d,p) (6D, 7F)
 Ernie: Thresh=  0.10000D-02 Tol=  0.10000D-05 Strict=F.
 There are   120 symmetry adapted cartesian basis functions of A   symmetry.
 There are   120 symmetry adapted basis functions of A   symmetry.
   120 basis functions,   210 primitive gaussians,   120 cartesian basis functions
    22 alpha electrons       21 beta electrons
       nuclear repulsion energy       203.4200892520 Hartrees.
 IExCor= 1009 DFT=T Ex+Corr=PBE1PBE ExCW=0 ScaHFX=  0.250000
 ScaDFX=  0.750000  0.750000  1.000000  1.000000 ScalE2=  1.000000  1.000000
 IRadAn=      5 IRanWt=     -1 IRanGd=            0 ICorTp=0 IEmpDi=141
 NAtoms=   12 NActive=   12 NUniq=   12 SFac= 1.00D+00 NAtFMM=   60 NAOKFM=F Big=F
 Integral buffers will be    131072 words long.
 Raffenetti 2 integral format.
 Two-electron integral symmetry is turned on.
 R6Disp:  Grimme-D3(BJ) Dispersion energy=       -0.0093601863 Hartrees.
 Nuclear repulsion after empirical dispersion term =      203.4107290657 Hartrees.
 Leave Link  301 at Mon Jun 20 17:11:33 2022, MaxMem=  1342177280 cpu:               0.3 elap:               0.1
 (Enter /gpfs1/apps/software/Gaussian16/AVX/g16/l302.exe)
 NPDir=0 NMtPBC=     1 NCelOv=     1 NCel=       1 NClECP=     1 NCelD=      1
         NCelK=      1 NCelE2=     1 NClLst=     1 CellRange=     0.0.
 One-electron integrals computed using PRISM.
 One-electron integral symmetry used in STVInt
 NBasis=   120 RedAO= T EigKep=  5.13D-04  NBF=   120
 NBsUse=   120 1.00D-06 EigRej= -1.00D+00 NBFU=   120
 Precomputing XC quadrature grid using
 IXCGrd= 4 IRadAn=           5 IRanWt=          -1 IRanGd=           0 AccXCQ= 0.00D+00.
 Generated NRdTot=       0 NPtTot=           0 NUsed=           0 NTot=          32
 NSgBfM=   120   120   120   120   120 MxSgAt=    12 MxSgA2=    12.
 Leave Link  302 at Mon Jun 20 17:11:35 2022, MaxMem=  1342177280 cpu:               1.1 elap:               0.4
 (Enter /gpfs1/apps/software/Gaussian16/AVX/g16/l303.exe)
 DipDrv:  MaxL=1.
 Leave Link  303 at Mon Jun 20 17:11:36 2022, MaxMem=  1342177280 cpu:               0.2 elap:               0.1
 (Enter /gpfs1/apps/software/Gaussian16/AVX/g16/l401.exe)
 ExpMin= 1.61D-01 ExpMax= 3.05D+03 ExpMxC= 4.57D+02 IAcc=3 IRadAn=         5 AccDes= 0.00D+00
 Harris functional with IExCor= 1009 and IRadAn=       5 diagonalized for initial guess.
 HarFok:  IExCor= 1009 AccDes= 0.00D+00 IRadAn=         5 IDoV= 1 UseB2=F ITyADJ=14
 ICtDFT=  3500011 ScaDFX=  1.000000  1.000000  1.000000  1.000000
 FoFCou: FMM=F IPFlag=           0 FMFlag=      100000 FMFlg1=           0
         NFxFlg=           0 DoJE=T BraDBF=F KetDBF=T FulRan=T
         wScrn=  0.000000 ICntrl=       500 IOpCl=  0 I1Cent=   200000004 NGrid=           0
         NMat0=    1 NMatS0=      1 NMatT0=    0 NMatD0=    1 NMtDS0=    0 NMtDT0=    0
 Petite list used in FoFCou.
 Harris En= -232.240075709716    
 JPrj=0 DoOrth=F DoCkMO=F.
 Initial guess <Sx>= 0.0000 <Sy>= 0.0000 <Sz>= 0.5000 <S**2>= 0.7500 S= 0.5000
 Leave Link  401 at Mon Jun 20 17:11:39 2022, MaxMem=  1342177280 cpu:               4.0 elap:               1.1
 (Enter /gpfs1/apps/software/Gaussian16/AVX/g16/l502.exe)
 Keep R1 and R2 ints in memory in canonical form, NReq=56505434.
 FoFCou: FMM=F IPFlag=           0 FMFlag=           0 FMFlg1=           0
         NFxFlg=           0 DoJE=F BraDBF=F KetDBF=F FulRan=T
         wScrn=  0.000000 ICntrl=       600 IOpCl=  0 I1Cent=           0 NGrid=           0
         NMat0=    1 NMatS0=   7260 NMatT0=    0 NMatD0=    1 NMtDS0=    0 NMtDT0=    0
 Symmetry not used in FoFCou.
 Two-electron integral symmetry not used.
 UHF open shell SCF:
 Using DIIS extrapolation, IDIIS=  1040.
 NGot=  1342177280 LenX=  1289431228 LenY=  1289416387
 Requested convergence on RMS density matrix=1.00D-08 within 128 cycles.
 Requested convergence on MAX density matrix=1.00D-06.
 Requested convergence on             energy=1.00D-06.
 No special actions if energy rises.
 Integral accuracy reduced to 1.0D-05 until final iterations.

 Cycle   1  Pass 0  IDiag  1:
 E= -231.603304545736    
 DIIS: error= 6.64D-02 at cycle   1 NSaved=   1.
 NSaved= 1 IEnMin= 1 EnMin= -231.603304545736     IErMin= 1 ErrMin= 6.64D-02
 ErrMax= 6.64D-02  0.00D+00 EMaxC= 1.00D-01 BMatC= 1.00D+00 BMatP= 1.00D+00
 IDIUse=3 WtCom= 3.36D-01 WtEn= 6.64D-01
 Coeff-Com:  0.100D+01
 Coeff-En:   0.100D+01
 Coeff:      0.100D+01
 Gap=     0.051 Goal=   None    Shift=    0.000
 Gap=     0.261 Goal=   None    Shift=    0.000
 GapD=    0.051 DampG=0.500 DampE=0.500 DampFc=0.2500 IDamp=-1.
 Damping current iteration by 2.50D-01
 RMSDP=1.21D-02 MaxDP=2.71D-01              OVMax= 2.37D-01

 Cycle   2  Pass 0  IDiag  1:
 E= -231.710645955531     Delta-E=       -0.107341409795 Rises=F Damp=T
 DIIS: error= 3.48D-02 at cycle   2 NSaved=   2.
 NSaved= 2 IEnMin= 2 EnMin= -231.710645955531     IErMin= 2 ErrMin= 3.48D-02
 ErrMax= 3.48D-02  0.00D+00 EMaxC= 1.00D-01 BMatC= 2.58D-01 BMatP= 1.00D+00
 IDIUse=3 WtCom= 6.52D-01 WtEn= 3.48D-01
 Coeff-Com: -0.896D+00 0.190D+01
 Coeff-En:   0.000D+00 0.100D+01
 Coeff:     -0.584D+00 0.158D+01
 Gap=     0.109 Goal=   None    Shift=    0.000
 Gap=     0.280 Goal=   None    Shift=    0.000
 RMSDP=3.45D-03 MaxDP=8.20D-02 DE=-1.07D-01 OVMax= 1.21D-01

 Cycle   3  Pass 0  IDiag  1:
 E= -231.895002394059     Delta-E=       -0.184356438528 Rises=F Damp=F
 DIIS: error= 9.07D-03 at cycle   3 NSaved=   3.
 NSaved= 3 IEnMin= 3 EnMin= -231.895002394059     IErMin= 3 ErrMin= 9.07D-03
 ErrMax= 9.07D-03  0.00D+00 EMaxC= 1.00D-01 BMatC= 2.22D-02 BMatP= 2.58D-01
 IDIUse=3 WtCom= 9.09D-01 WtEn= 9.07D-02
 Coeff-Com:  0.199D+00-0.139D+00 0.940D+00
 Coeff-En:   0.000D+00 0.000D+00 0.100D+01
 Coeff:      0.181D+00-0.126D+00 0.945D+00
 Gap=     0.068 Goal=   None    Shift=    0.000
 Gap=     0.240 Goal=   None    Shift=    0.000
 RMSDP=9.14D-04 MaxDP=2.01D-02 DE=-1.84D-01 OVMax= 1.86D-02

 Cycle   4  Pass 0  IDiag  1:
 E= -231.901162790994     Delta-E=       -0.006160396935 Rises=F Damp=F
 DIIS: error= 1.17D-03 at cycle   4 NSaved=   4.
 NSaved= 4 IEnMin= 4 EnMin= -231.901162790994     IErMin= 4 ErrMin= 1.17D-03
 ErrMax= 1.17D-03  0.00D+00 EMaxC= 1.00D-01 BMatC= 4.12D-04 BMatP= 2.22D-02
 IDIUse=3 WtCom= 9.88D-01 WtEn= 1.17D-02
 Coeff-Com:  0.492D-01-0.655D-01 0.196D+00 0.821D+00
 Coeff-En:   0.000D+00 0.000D+00 0.000D+00 0.100D+01
 Coeff:      0.486D-01-0.647D-01 0.193D+00 0.823D+00
 Gap=     0.070 Goal=   None    Shift=    0.000
 Gap=     0.240 Goal=   None    Shift=    0.000
 RMSDP=1.35D-04 MaxDP=3.70D-03 DE=-6.16D-03 OVMax= 5.38D-03

 Cycle   5  Pass 0  IDiag  1:
 E= -231.901272969877     Delta-E=       -0.000110178882 Rises=F Damp=F
 DIIS: error= 7.80D-04 at cycle   5 NSaved=   5.
 NSaved= 5 IEnMin= 5 EnMin= -231.901272969877     IErMin= 5 ErrMin= 7.80D-04
 ErrMax= 7.80D-04  0.00D+00 EMaxC= 1.00D-01 BMatC= 1.11D-04 BMatP= 4.12D-04
 IDIUse=3 WtCom= 9.92D-01 WtEn= 7.80D-03
 Coeff-Com:  0.189D-01-0.285D-01 0.706D-01 0.428D+00 0.511D+00
 Coeff-En:   0.000D+00 0.000D+00 0.000D+00 0.000D+00 0.100D+01
 Coeff:      0.187D-01-0.282D-01 0.701D-01 0.424D+00 0.515D+00
 Gap=     0.070 Goal=   None    Shift=    0.000
 Gap=     0.239 Goal=   None    Shift=    0.000
 RMSDP=4.72D-05 MaxDP=1.38D-03 DE=-1.10D-04 OVMax= 2.87D-03

 Cycle   6  Pass 0  IDiag  1:
 E= -231.901302678000     Delta-E=       -0.000029708124 Rises=F Damp=F
 DIIS: error= 2.26D-04 at cycle   6 NSaved=   6.
 NSaved= 6 IEnMin= 6 EnMin= -231.901302678000     IErMin= 6 ErrMin= 2.26D-04
 ErrMax= 2.26D-04  0.00D+00 EMaxC= 1.00D-01 BMatC= 7.97D-06 BMatP= 1.11D-04
 IDIUse=3 WtCom= 9.98D-01 WtEn= 2.26D-03
 Coeff-Com: -0.115D-01 0.150D-01-0.512D-01-0.202D+00 0.442D-01 0.121D+01
 Coeff-En:   0.000D+00 0.000D+00 0.000D+00 0.000D+00 0.000D+00 0.100D+01
 Coeff:     -0.115D-01 0.150D-01-0.510D-01-0.202D+00 0.441D-01 0.121D+01
 Gap=     0.071 Goal=   None    Shift=    0.000
 Gap=     0.238 Goal=   None    Shift=    0.000
 RMSDP=4.73D-05 MaxDP=1.09D-03 DE=-2.97D-05 OVMax= 3.95D-03

 Cycle   7  Pass 0  IDiag  1:
 E= -231.901309974221     Delta-E=       -0.000007296221 Rises=F Damp=F
 DIIS: error= 9.34D-05 at cycle   7 NSaved=   7.
 NSaved= 7 IEnMin= 7 EnMin= -231.901309974221     IErMin= 7 ErrMin= 9.34D-05
 ErrMax= 9.34D-05  0.00D+00 EMaxC= 1.00D-01 BMatC= 2.58D-06 BMatP= 7.97D-06
 IDIUse=1 WtCom= 1.00D+00 WtEn= 0.00D+00
 Coeff-Com: -0.740D-02 0.982D-02-0.313D-01-0.137D+00-0.260D-01 0.638D+00
 Coeff-Com:  0.553D+00
 Coeff:     -0.740D-02 0.982D-02-0.313D-01-0.137D+00-0.260D-01 0.638D+00
 Coeff:      0.553D+00
 Gap=     0.071 Goal=   None    Shift=    0.000
 Gap=     0.238 Goal=   None    Shift=    0.000
 RMSDP=1.53D-05 MaxDP=3.97D-04 DE=-7.30D-06 OVMax= 1.35D-03

 Cycle   8  Pass 0  IDiag  1:
 E= -231.901311363648     Delta-E=       -0.000001389427 Rises=F Damp=F
 DIIS: error= 6.42D-05 at cycle   8 NSaved=   8.
 NSaved= 8 IEnMin= 8 EnMin= -231.901311363648     IErMin= 8 ErrMin= 6.42D-05
 ErrMax= 6.42D-05  0.00D+00 EMaxC= 1.00D-01 BMatC= 4.09D-07 BMatP= 2.58D-06
 IDIUse=1 WtCom= 1.00D+00 WtEn= 0.00D+00
 Coeff-Com:  0.156D-03-0.167D-03 0.237D-02 0.373D-02-0.405D-01-0.500D-01
 Coeff-Com:  0.179D-01 0.107D+01
 Coeff:      0.156D-03-0.167D-03 0.237D-02 0.373D-02-0.405D-01-0.500D-01
 Coeff:      0.179D-01 0.107D+01
 Gap=     0.071 Goal=   None    Shift=    0.000
 Gap=     0.238 Goal=   None    Shift=    0.000
 RMSDP=3.05D-05 MaxDP=8.60D-04 DE=-1.39D-06 OVMax= 3.20D-03

 Cycle   9  Pass 0  IDiag  1:
 E= -231.901312940967     Delta-E=       -0.000001577319 Rises=F Damp=F
 DIIS: error= 6.48D-05 at cycle   9 NSaved=   9.
 NSaved= 9 IEnMin= 9 EnMin= -231.901312940967     IErMin= 8 ErrMin= 6.42D-05
 ErrMax= 6.48D-05  0.00D+00 EMaxC= 1.00D-01 BMatC= 5.39D-07 BMatP= 4.09D-07
 IDIUse=1 WtCom= 1.00D+00 WtEn= 0.00D+00
 Coeff-Com:  0.430D-03-0.579D-03 0.138D-02 0.111D-01-0.158D-01 0.479D-01
 Coeff-Com: -0.391D+00-0.415D-02 0.135D+01
 Coeff:      0.430D-03-0.579D-03 0.138D-02 0.111D-01-0.158D-01 0.479D-01
 Coeff:     -0.391D+00-0.415D-02 0.135D+01
 Gap=     0.071 Goal=   None    Shift=    0.000
 Gap=     0.238 Goal=   None    Shift=    0.000
 RMSDP=4.06D-05 MaxDP=1.14D-03 DE=-1.58D-06 OVMax= 4.27D-03

 Cycle  10  Pass 0  IDiag  1:
 E= -231.901315039250     Delta-E=       -0.000002098283 Rises=F Damp=F
 DIIS: error= 6.59D-05 at cycle  10 NSaved=  10.
 NSaved=10 IEnMin=10 EnMin= -231.901315039250     IErMin= 8 ErrMin= 6.42D-05
 ErrMax= 6.59D-05  0.00D+00 EMaxC= 1.00D-01 BMatC= 5.51D-07 BMatP= 4.09D-07
 IDIUse=1 WtCom= 1.00D+00 WtEn= 0.00D+00
 Coeff-Com:  0.359D-03-0.486D-03 0.927D-03 0.980D-02-0.144D-01 0.617D-01
 Coeff-Com: -0.408D+00-0.654D-01 0.998D+00 0.418D+00
 Coeff:      0.359D-03-0.486D-03 0.927D-03 0.980D-02-0.144D-01 0.617D-01
 Coeff:     -0.408D+00-0.654D-01 0.998D+00 0.418D+00
 Gap=     0.071 Goal=   None    Shift=    0.000
 Gap=     0.238 Goal=   None    Shift=    0.000
 RMSDP=1.87D-05 MaxDP=5.28D-04 DE=-2.10D-06 OVMax= 1.97D-03

 Cycle  11  Pass 0  IDiag  1:
 E= -231.901316010230     Delta-E=       -0.000000970981 Rises=F Damp=F
 DIIS: error= 6.62D-05 at cycle  11 NSaved=  11.
 NSaved=11 IEnMin=11 EnMin= -231.901316010230     IErMin= 8 ErrMin= 6.42D-05
 ErrMax= 6.62D-05  0.00D+00 EMaxC= 1.00D-01 BMatC= 5.47D-07 BMatP= 4.09D-07
 IDIUse=1 WtCom= 1.00D+00 WtEn= 0.00D+00
 Coeff-Com:  0.256D-03-0.344D-03 0.604D-03 0.762D-02-0.160D-01 0.636D-01
 Coeff-Com: -0.377D+00 0.908D-02 0.475D+00 0.228D+00 0.609D+00
 Coeff:      0.256D-03-0.344D-03 0.604D-03 0.762D-02-0.160D-01 0.636D-01
 Coeff:     -0.377D+00 0.908D-02 0.475D+00 0.228D+00 0.609D+00
 Gap=     0.071 Goal=   None    Shift=    0.000
 Gap=     0.238 Goal=   None    Shift=    0.000
 RMSDP=2.52D-05 MaxDP=6.98D-04 DE=-9.71D-07 OVMax= 2.65D-03

 Cycle  12  Pass 0  IDiag  1:
 E= -231.901317316840     Delta-E=       -0.000001306610 Rises=F Damp=F
 DIIS: error= 6.65D-05 at cycle  12 NSaved=  12.
 NSaved=12 IEnMin=12 EnMin= -231.901317316840     IErMin= 8 ErrMin= 6.42D-05
 ErrMax= 6.65D-05  0.00D+00 EMaxC= 1.00D-01 BMatC= 5.52D-07 BMatP= 4.09D-07
 IDIUse=1 WtCom= 1.00D+00 WtEn= 0.00D+00
 Large coefficients: NSaved= 12 BigCof=   37.36 CofMax=   10.00 Det=-2.06D-11
 Inversion failed.  Reducing to 11 matrices.
 Large coefficients: NSaved= 11 BigCof=   37.24 CofMax=   10.00 Det=-2.14D-11
 Inversion failed.  Reducing to 10 matrices.
 Large coefficients: NSaved= 10 BigCof=   37.19 CofMax=   10.00 Det=-2.14D-11
 Inversion failed.  Reducing to  9 matrices.
 Large coefficients: NSaved=  9 BigCof=   31.56 CofMax=   10.00 Det=-2.38D-11
 Inversion failed.  Reducing to  8 matrices.
 Large coefficients: NSaved=  8 BigCof=   26.74 CofMax=   10.00 Det=-2.52D-11
 Inversion failed.  Reducing to  7 matrices.
 Coeff-Com:  0.106D+00-0.311D+00 0.913D-01-0.262D+00 0.150D+00 0.300D+01
 Coeff-Com: -0.177D+01
 Coeff:      0.106D+00-0.311D+00 0.913D-01-0.262D+00 0.150D+00 0.300D+01
 Coeff:     -0.177D+01
 Gap=     0.071 Goal=   None    Shift=    0.000
 Gap=     0.238 Goal=   None    Shift=    0.000
 RMSDP=2.09D-05 MaxDP=5.92D-04 DE=-1.31D-06 OVMax= 2.20D-03

 Cycle  13  Pass 0  IDiag  1:
 E= -231.901316241196     Delta-E=        0.000001075645 Rises=F Damp=F
 DIIS: error= 6.65D-05 at cycle  13 NSaved=   8.
 NSaved= 8 IEnMin= 7 EnMin= -231.901317316840     IErMin= 3 ErrMin= 6.42D-05
 ErrMax= 6.65D-05  0.00D+00 EMaxC= 1.00D-01 BMatC= 4.71D-07 BMatP= 4.09D-07
 IDIUse=1 WtCom= 1.00D+00 WtEn= 0.00D+00
 Large coefficients: NSaved=  8 BigCof=   38.11 CofMax=   10.00 Det=-2.01D-11
 Inversion failed.  Reducing to  7 matrices.
 Large coefficients: NSaved=  7 BigCof=   41.76 CofMax=   10.00 Det=-2.19D-11
 Inversion failed.  Reducing to  6 matrices.
 Large coefficients: NSaved=  6 BigCof=   52.85 CofMax=   10.00 Det=-2.28D-11
 Inversion failed.  Reducing to  5 matrices.
 Large coefficients: NSaved=  5 BigCof=   62.22 CofMax=   10.00 Det=-4.70D-11
 Inversion failed.  Reducing to  4 matrices.
 Large coefficients: NSaved=  4 BigCof=   49.01 CofMax=   10.00 Det=-6.67D-11
 Inversion failed.  Reducing to  3 matrices.
 Large coefficients: NSaved=  3 BigCof=   24.06 CofMax=   10.00 Det=-1.33D-10
 Inversion failed.  Reducing to  2 matrices.
 Coeff-Com: -0.174D+00 0.117D+01
 Coeff:     -0.174D+00 0.117D+01
 Gap=     0.071 Goal=   None    Shift=    0.000
 Gap=     0.238 Goal=   None    Shift=    0.000
 RMSDP=2.18D-05 MaxDP=6.16D-04 DE= 1.08D-06 OVMax= 2.24D-03

 Cycle  14  Pass 0  IDiag  1:
 E= -231.901317405698     Delta-E=       -0.000001164503 Rises=F Damp=F
 DIIS: error= 6.88D-05 at cycle  14 NSaved=   3.
 NSaved= 3 IEnMin= 3 EnMin= -231.901317405698     IErMin= 1 ErrMin= 6.65D-05
 ErrMax= 6.88D-05  0.00D+00 EMaxC= 1.00D-01 BMatC= 3.09D-07 BMatP= 4.71D-07
 IDIUse=1 WtCom= 1.00D+00 WtEn= 0.00D+00
 Coeff-Com: -0.598D+00 0.873D+00 0.725D+00
 Coeff:     -0.598D+00 0.873D+00 0.725D+00
 Gap=     0.071 Goal=   None    Shift=    0.000
 Gap=     0.238 Goal=   None    Shift=    0.000
 RMSDP=9.38D-06 MaxDP=2.58D-04 DE=-1.16D-06 OVMax= 9.85D-04

 Initial convergence to 1.0D-05 achieved.  Increase integral accuracy.
 Cycle  15  Pass 1  IDiag  1:
 E= -231.901310663783     Delta-E=        0.000006741915 Rises=F Damp=F
 DIIS: error= 6.65D-05 at cycle   1 NSaved=   1.
 NSaved= 1 IEnMin= 1 EnMin= -231.901310663783     IErMin= 1 ErrMin= 6.65D-05
 ErrMax= 6.65D-05  0.00D+00 EMaxC= 1.00D-01 BMatC= 5.34D-07 BMatP= 5.34D-07
 IDIUse=1 WtCom= 1.00D+00 WtEn= 0.00D+00
 Coeff-Com:  0.100D+01
 Coeff:      0.100D+01
 Gap=     0.071 Goal=   None    Shift=    0.000
 Gap=     0.238 Goal=   None    Shift=    0.000
 RMSDP=9.38D-06 MaxDP=2.58D-04 DE= 6.74D-06 OVMax= 2.57D-03

 Cycle  16  Pass 1  IDiag  1:
 E= -231.901312031605     Delta-E=       -0.000001367822 Rises=F Damp=F
 DIIS: error= 7.02D-05 at cycle   2 NSaved=   2.
 NSaved= 2 IEnMin= 2 EnMin= -231.901312031605     IErMin= 1 ErrMin= 6.65D-05
 ErrMax= 7.02D-05  0.00D+00 EMaxC= 1.00D-01 BMatC= 2.99D-07 BMatP= 5.34D-07
 IDIUse=1 WtCom= 1.00D+00 WtEn= 0.00D+00
 Coeff-Com:  0.305D+00 0.695D+00
 Coeff:      0.305D+00 0.695D+00
 Gap=     0.071 Goal=   None    Shift=    0.000
 Gap=     0.238 Goal=   None    Shift=    0.000
 RMSDP=2.05D-05 MaxDP=5.66D-04 DE=-1.37D-06 OVMax= 2.18D-03

 Cycle  17  Pass 1  IDiag  1:
 E= -231.901313031305     Delta-E=       -0.000000999699 Rises=F Damp=F
 DIIS: error= 6.71D-05 at cycle   3 NSaved=   3.
 NSaved= 3 IEnMin= 3 EnMin= -231.901313031305     IErMin= 1 ErrMin= 6.65D-05
 ErrMax= 6.71D-05  0.00D+00 EMaxC= 1.00D-01 BMatC= 5.64D-07 BMatP= 2.99D-07
 IDIUse=1 WtCom= 1.00D+00 WtEn= 0.00D+00
 Coeff-Com:  0.282D+00 0.695D+00 0.231D-01
 Coeff:      0.282D+00 0.695D+00 0.231D-01
 Gap=     0.071 Goal=   None    Shift=    0.000
 Gap=     0.238 Goal=   None    Shift=    0.000
 RMSDP=1.07D-06 MaxDP=2.96D-05 DE=-1.00D-06 OVMax= 1.12D-04

 Cycle  18  Pass 1  IDiag  1:
 E= -231.901313087547     Delta-E=       -0.000000056242 Rises=F Damp=F
 DIIS: error= 6.71D-05 at cycle   4 NSaved=   4.
 NSaved= 4 IEnMin= 4 EnMin= -231.901313087547     IErMin= 1 ErrMin= 6.65D-05
 ErrMax= 6.71D-05  0.00D+00 EMaxC= 1.00D-01 BMatC= 5.64D-07 BMatP= 2.99D-07
 IDIUse=1 WtCom= 1.00D+00 WtEn= 0.00D+00
 Large coefficients: NSaved=  4 BigCof=   45.15 CofMax=   10.00 Det=-9.11D-13
 Inversion failed.  Reducing to  3 matrices.
 Large coefficients: NSaved=  3 BigCof=   28.16 CofMax=   10.00 Det=-1.16D-12
 Inversion failed.  Reducing to  2 matrices.
 Large coefficients: NSaved=  2 BigCof=   11.13 CofMax=   10.00 Det=-1.16D-12
 Coeff-Com:  0.111D+02-0.101D+02
 Coeff:      0.111D+02-0.101D+02
 Gap=     0.071 Goal=   None    Shift=    0.000
 Gap=     0.238 Goal=   None    Shift=    0.000
 RMSDP=1.34D-05 MaxDP=3.57D-04 DE=-5.62D-08 OVMax= 1.32D-03

 Cycle  19  Pass 1  IDiag  1:
 E= -231.901313835477     Delta-E=       -0.000000747930 Rises=F Damp=F
 DIIS: error= 7.08D-05 at cycle   5 NSaved=   3.
 NSaved= 3 IEnMin= 3 EnMin= -231.901313835477     IErMin= 1 ErrMin= 6.71D-05
 ErrMax= 7.08D-05  0.00D+00 EMaxC= 1.00D-01 BMatC= 3.25D-07 BMatP= 5.64D-07
 IDIUse=1 WtCom= 1.00D+00 WtEn= 0.00D+00
 Large coefficients: NSaved=  3 BigCof=   65.15 CofMax=   10.00 Det=-1.15D-12
 Inversion failed.  Reducing to  2 matrices.
 Coeff-Com:  0.333D+00 0.667D+00
 Coeff:      0.333D+00 0.667D+00
 Gap=     0.071 Goal=   None    Shift=    0.000
 Gap=     0.238 Goal=   None    Shift=    0.000
 RMSDP=2.39D-05 MaxDP=6.60D-04 DE=-7.48D-07 OVMax= 2.54D-03

 Cycle  20  Pass 1  IDiag  1:
 E= -231.901315024338     Delta-E=       -0.000001188861 Rises=F Damp=F
 DIIS: error= 6.75D-05 at cycle   6 NSaved=   3.
 NSaved= 3 IEnMin= 3 EnMin= -231.901315024338     IErMin= 1 ErrMin= 6.71D-05
 ErrMax= 6.75D-05  0.00D+00 EMaxC= 1.00D-01 BMatC= 5.65D-07 BMatP= 3.25D-07
 IDIUse=1 WtCom= 1.00D+00 WtEn= 0.00D+00
 Coeff-Com: -0.266D+00 0.667D+00 0.599D+00
 Coeff:     -0.266D+00 0.667D+00 0.599D+00
 Gap=     0.071 Goal=   None    Shift=    0.000
 Gap=     0.238 Goal=   None    Shift=    0.000
 RMSDP=2.21D-05 MaxDP=6.12D-04 DE=-1.19D-06 OVMax= 2.32D-03

 Cycle  21  Pass 1  IDiag  1:
 E= -231.901316192411     Delta-E=       -0.000001168073 Rises=F Damp=F
 DIIS: error= 6.76D-05 at cycle   7 NSaved=   4.
 NSaved= 4 IEnMin= 4 EnMin= -231.901316192411     IErMin= 1 ErrMin= 6.71D-05
 ErrMax= 6.76D-05  0.00D+00 EMaxC= 1.00D-01 BMatC= 5.67D-07 BMatP= 3.25D-07
 IDIUse=1 WtCom= 1.00D+00 WtEn= 0.00D+00
 Large coefficients: NSaved=  4 BigCof=   16.23 CofMax=   10.00 Det=-1.15D-10
 Inversion failed.  Reducing to  3 matrices.
 Coeff-Com:  0.669D+00 0.210D+01-0.177D+01
 Coeff:      0.669D+00 0.210D+01-0.177D+01
 Gap=     0.071 Goal=   None    Shift=    0.000
 Gap=     0.238 Goal=   None    Shift=    0.000
 RMSDP=4.90D-05 MaxDP=1.36D-03 DE=-1.17D-06 OVMax= 5.16D-03

 Cycle  22  Pass 1  IDiag  1:
 E= -231.901313598833     Delta-E=        0.000002593578 Rises=F Damp=F
 DIIS: error= 6.72D-05 at cycle   8 NSaved=   4.
 NSaved= 4 IEnMin= 3 EnMin= -231.901316192411     IErMin= 4 ErrMin= 6.72D-05
 ErrMax= 6.72D-05  0.00D+00 EMaxC= 1.00D-01 BMatC= 5.70D-07 BMatP= 3.25D-07
 IDIUse=1 WtCom= 1.00D+00 WtEn= 0.00D+00
 Large coefficients: NSaved=  4 BigCof=   63.07 CofMax=   10.00 Det=-1.22D-11
 Inversion failed.  Reducing to  3 matrices.
 Large coefficients: NSaved=  3 BigCof=   94.51 CofMax=   10.00 Det=-1.28D-11
 Inversion failed.  Reducing to  2 matrices.
 Coeff-Com:  0.933D+00 0.673D-01
 Coeff:      0.933D+00 0.673D-01
 Gap=     0.071 Goal=   None    Shift=    0.000
 Gap=     0.238 Goal=   None    Shift=    0.000
 RMSDP=7.09D-05 MaxDP=1.96D-03 DE= 2.59D-06 OVMax= 7.40D-03

 Cycle  23  Pass 1  IDiag  1:
 E= -231.901317413381     Delta-E=       -0.000003814549 Rises=F Damp=F
 DIIS: error= 7.13D-05 at cycle   9 NSaved=   3.
 NSaved= 3 IEnMin= 3 EnMin= -231.901317413381     IErMin= 2 ErrMin= 6.72D-05
 ErrMax= 7.13D-05  0.00D+00 EMaxC= 1.00D-01 BMatC= 3.25D-07 BMatP= 5.67D-07
 IDIUse=1 WtCom= 1.00D+00 WtEn= 0.00D+00
 Coeff-Com:  0.646D+00-0.318D+00 0.672D+00
 Coeff:      0.646D+00-0.318D+00 0.672D+00
 Gap=     0.071 Goal=   None    Shift=    0.000
 Gap=     0.238 Goal=   None    Shift=    0.000
 RMSDP=3.68D-05 MaxDP=1.02D-03 DE=-3.81D-06 OVMax= 3.91D-03

 Cycle  24  Pass 1  IDiag  1:
 E= -231.901319301359     Delta-E=       -0.000001887978 Rises=F Damp=F
 DIIS: error= 6.80D-05 at cycle  10 NSaved=   4.
 NSaved= 4 IEnMin= 4 EnMin= -231.901319301359     IErMin= 2 ErrMin= 6.72D-05
 ErrMax= 6.80D-05  0.00D+00 EMaxC= 1.00D-01 BMatC= 5.72D-07 BMatP= 3.25D-07
 IDIUse=1 WtCom= 1.00D+00 WtEn= 0.00D+00
 Large coefficients: NSaved=  4 BigCof=   15.31 CofMax=   10.00 Det=-1.69D-10
 Inversion failed.  Reducing to  3 matrices.
 Coeff-Com:  0.574D+01 0.667D+00-0.540D+01
 Coeff:      0.574D+01 0.667D+00-0.540D+01
 Gap=     0.071 Goal=   None    Shift=    0.000
 Gap=     0.238 Goal=   None    Shift=    0.000
 RMSDP=3.32D-04 MaxDP=9.22D-03 DE=-1.89D-06 OVMax= 3.50D-02

 Cycle  25  Pass 1  IDiag  1:
 E= -231.901301917324     Delta-E=        0.000017384036 Rises=F Damp=F
 DIIS: error= 6.49D-05 at cycle  11 NSaved=   4.
 NSaved= 4 IEnMin= 3 EnMin= -231.901319301359     IErMin= 4 ErrMin= 6.49D-05
 ErrMax= 6.49D-05  0.00D+00 EMaxC= 1.00D-01 BMatC= 6.12D-07 BMatP= 3.25D-07
 IDIUse=1 WtCom= 1.00D+00 WtEn= 0.00D+00
 Large coefficients: NSaved=  4 BigCof=   47.09 CofMax=   10.00 Det=-3.51D-11
 Inversion failed.  Reducing to  3 matrices.
 Coeff-Com:  0.675D+00 0.349D+00-0.240D-01
 Coeff:      0.675D+00 0.349D+00-0.240D-01
 Gap=     0.071 Goal=   None    Shift=    0.000
 Gap=     0.238 Goal=   None    Shift=    0.000
 RMSDP=3.44D-04 MaxDP=9.54D-03 DE= 1.74D-05 OVMax= 3.62D-02

 Cycle  26  Pass 1  IDiag  1:
 E= -231.901319914258     Delta-E=       -0.000017996934 Rises=F Damp=F
 DIIS: error= 6.81D-05 at cycle  12 NSaved=   4.
 NSaved= 4 IEnMin= 4 EnMin= -231.901319914258     IErMin= 3 ErrMin= 6.49D-05
 ErrMax= 6.81D-05  0.00D+00 EMaxC= 1.00D-01 BMatC= 5.75D-07 BMatP= 3.25D-07
 IDIUse=1 WtCom= 1.00D+00 WtEn= 0.00D+00
 Coeff-Com:  0.678D+00-0.671D+01 0.394D+00 0.664D+01
 Coeff:      0.678D+00-0.671D+01 0.394D+00 0.664D+01
 Gap=     0.071 Goal=   None    Shift=    0.000
 Gap=     0.238 Goal=   None    Shift=    0.000
 RMSDP=6.29D-05 MaxDP=1.75D-03 DE=-1.80D-05 OVMax= 6.62D-03

 Cycle  27  Pass 1  IDiag  1:
 E= -231.901316560032     Delta-E=        0.000003354226 Rises=F Damp=F
 DIIS: error= 6.76D-05 at cycle  13 NSaved=   5.
 NSaved= 5 IEnMin= 4 EnMin= -231.901319914258     IErMin= 3 ErrMin= 6.49D-05
 ErrMax= 6.76D-05  0.00D+00 EMaxC= 1.00D-01 BMatC= 5.95D-07 BMatP= 3.25D-07
 IDIUse=1 WtCom= 1.00D+00 WtEn= 0.00D+00
 Large coefficients: NSaved=  5 BigCof=   19.51 CofMax=   10.00 Det=-3.81D-11
 Inversion failed.  Reducing to  4 matrices.
 Coeff-Com:  0.682D+00-0.815D+00 0.884D+00 0.250D+00
 Coeff:      0.682D+00-0.815D+00 0.884D+00 0.250D+00
 Gap=     0.071 Goal=   None    Shift=    0.000
 Gap=     0.238 Goal=   None    Shift=    0.000
 RMSDP=5.20D-05 MaxDP=1.44D-03 DE= 3.35D-06 OVMax= 5.47D-03

 Cycle  28  Pass 1  IDiag  1:
 E= -231.901319330967     Delta-E=       -0.000002770936 Rises=F Damp=F
 DIIS: error= 6.80D-05 at cycle  14 NSaved=   5.
 NSaved= 5 IEnMin= 3 EnMin= -231.901319914258     IErMin= 4 ErrMin= 6.76D-05
 ErrMax= 6.80D-05  0.00D+00 EMaxC= 1.00D-01 BMatC= 5.77D-07 BMatP= 3.25D-07
 IDIUse=1 WtCom= 1.00D+00 WtEn= 0.00D+00
 Coeff-Com:  0.686D+00-0.137D+01 0.692D+00 0.386D+00 0.604D+00
 Coeff:      0.686D+00-0.137D+01 0.692D+00 0.386D+00 0.604D+00
 Gap=     0.071 Goal=   None    Shift=    0.000
 Gap=     0.238 Goal=   None    Shift=    0.000
 RMSDP=9.03D-06 MaxDP=2.51D-04 DE=-2.77D-06 OVMax= 9.50D-04

 Cycle  29  Pass 1  IDiag  1:
 E= -231.901318849707     Delta-E=        0.000000481260 Rises=F Damp=F
 DIIS: error= 6.79D-05 at cycle  15 NSaved=   6.
 NSaved= 6 IEnMin= 3 EnMin= -231.901319914258     IErMin= 4 ErrMin= 6.76D-05
 ErrMax= 6.79D-05  0.00D+00 EMaxC= 1.00D-01 BMatC= 5.77D-07 BMatP= 3.25D-07
 IDIUse=1 WtCom= 1.00D+00 WtEn= 0.00D+00
 Coeff-Com:  0.691D+00-0.356D+01 0.190D+01 0.276D+00-0.455D+01 0.625D+01
 Coeff:      0.691D+00-0.356D+01 0.190D+01 0.276D+00-0.455D+01 0.625D+01
 Gap=     0.071 Goal=   None    Shift=    0.000
 Gap=     0.238 Goal=   None    Shift=    0.000
 RMSDP=3.65D-05 MaxDP=1.01D-03 DE= 4.81D-07 OVMax= 3.84D-03

 Cycle  30  Pass 1  IDiag  1:
 E= -231.901316908536     Delta-E=        0.000001941171 Rises=F Damp=F
 DIIS: error= 6.77D-05 at cycle  16 NSaved=   7.
 NSaved= 7 IEnMin= 3 EnMin= -231.901319914258     IErMin= 4 ErrMin= 6.76D-05
 ErrMax= 6.77D-05  0.00D+00 EMaxC= 1.00D-01 BMatC= 5.74D-07 BMatP= 3.25D-07
 IDIUse=1 WtCom= 1.00D+00 WtEn= 0.00D+00
 Coeff-Com:  0.677D+00-0.350D+01 0.314D+01-0.692D-01-0.939D+01 0.710D+01
 Coeff-Com:  0.304D+01
 Coeff:      0.677D+00-0.350D+01 0.314D+01-0.692D-01-0.939D+01 0.710D+01
 Coeff:      0.304D+01
 Gap=     0.071 Goal=   None    Shift=    0.000
 Gap=     0.238 Goal=   None    Shift=    0.000
 RMSDP=1.15D-04 MaxDP=3.18D-03 DE= 1.94D-06 OVMax= 1.21D-02

 Cycle  31  Pass 1  IDiag  1:
 E= -231.901310865795     Delta-E=        0.000006042741 Rises=F Damp=F
 DIIS: error= 6.67D-05 at cycle  17 NSaved=   8.
 NSaved= 8 IEnMin= 3 EnMin= -231.901319914258     IErMin= 8 ErrMin= 6.67D-05
 ErrMax= 6.67D-05  0.00D+00 EMaxC= 1.00D-01 BMatC= 5.60D-07 BMatP= 3.25D-07
 IDIUse=1 WtCom= 1.00D+00 WtEn= 0.00D+00
 Large coefficients: NSaved=  8 BigCof=   35.42 CofMax=   10.00 Det=-8.63D-12
 Inversion failed.  Reducing to  7 matrices.
 Large coefficients: NSaved=  7 BigCof=   32.64 CofMax=   10.00 Det=-9.49D-12
 Inversion failed.  Reducing to  6 matrices.
 Large coefficients: NSaved=  6 BigCof=   76.68 CofMax=   10.00 Det=-1.28D-11
 Inversion failed.  Reducing to  5 matrices.
 Large coefficients: NSaved=  5 BigCof=   66.55 CofMax=   10.00 Det=-4.84D-11
 Inversion failed.  Reducing to  4 matrices.
 Large coefficients: NSaved=  4 BigCof=   49.92 CofMax=   10.00 Det=-6.52D-11
 Inversion failed.  Reducing to  3 matrices.
 Coeff-Com:  0.109D+01-0.210D+01 0.201D+01
 Coeff:      0.109D+01-0.210D+01 0.201D+01
 Gap=     0.071 Goal=   None    Shift=    0.000
 Gap=     0.238 Goal=   None    Shift=    0.000
 RMSDP=3.01D-05 MaxDP=8.53D-04 DE= 6.04D-06 OVMax= 3.20D-03

 Cycle  32  Pass 1  IDiag  1:
 E= -231.901309356786     Delta-E=        0.000001509009 Rises=F Damp=F
 DIIS: error= 6.99D-05 at cycle  18 NSaved=   4.
 NSaved= 4 IEnMin= 1 EnMin= -231.901319914258     IErMin= 3 ErrMin= 6.67D-05
 ErrMax= 6.99D-05  0.00D+00 EMaxC= 1.00D-01 BMatC= 3.49D-07 BMatP= 5.60D-07
 IDIUse=1 WtCom= 1.00D+00 WtEn= 0.00D+00
 Coeff-Com:  0.111D+01-0.341D+01 0.263D+01 0.671D+00
 Coeff:      0.111D+01-0.341D+01 0.263D+01 0.671D+00
 Gap=     0.071 Goal=   None    Shift=    0.000
 Gap=     0.238 Goal=   None    Shift=    0.000
 RMSDP=1.64D-04 MaxDP=4.55D-03 DE= 1.51D-06 OVMax= 1.72D-02

 Cycle  33  Pass 1  IDiag  1:
 E= -231.901300877825     Delta-E=        0.000008478960 Rises=F Damp=F
 DIIS: error= 6.45D-05 at cycle  19 NSaved=   5.
 NSaved= 5 IEnMin= 1 EnMin= -231.901319914258     IErMin= 5 ErrMin= 6.45D-05
 ErrMax= 6.45D-05  0.00D+00 EMaxC= 1.00D-01 BMatC= 5.46D-07 BMatP= 3.49D-07
 IDIUse=1 WtCom= 1.00D+00 WtEn= 0.00D+00
 Coeff-Com:  0.164D+01-0.472D+01 0.239D+01 0.652D+00 0.104D+01
 Coeff:      0.164D+01-0.472D+01 0.239D+01 0.652D+00 0.104D+01
 Gap=     0.071 Goal=   None    Shift=    0.000
 Gap=     0.238 Goal=   None    Shift=    0.000
 RMSDP=2.60D-04 MaxDP=7.17D-03 DE= 8.48D-06 OVMax= 2.74D-02

 Cycle  34  Pass 1  IDiag  1:
 E= -231.901288113292     Delta-E=        0.000012764533 Rises=F Damp=F
 DIIS: error= 6.38D-05 at cycle  20 NSaved=   6.
 NSaved= 6 IEnMin= 1 EnMin= -231.901319914258     IErMin= 6 ErrMin= 6.38D-05
 ErrMax= 6.38D-05  0.00D+00 EMaxC= 1.00D-01 BMatC= 6.40D-07 BMatP= 3.49D-07
 IDIUse=1 WtCom= 1.00D+00 WtEn= 0.00D+00
 Coeff-Com: -0.274D+01-0.655D+01 0.560D+01 0.632D+00 0.575D+01-0.169D+01
 Coeff:     -0.274D+01-0.655D+01 0.560D+01 0.632D+00 0.575D+01-0.169D+01
 Gap=     0.073 Goal=   None    Shift=    0.000
 Gap=     0.238 Goal=   None    Shift=    0.000
 RMSDP=1.05D-03 MaxDP=2.84D-02 DE= 1.28D-05 OVMax= 1.11D-01

 Cycle  35  Pass 1  IDiag  1:
 E= -231.901235926843     Delta-E=        0.000052186449 Rises=F Damp=F
 DIIS: error= 5.11D-04 at cycle  21 NSaved=   7.
 NSaved= 7 IEnMin= 1 EnMin= -231.901319914258     IErMin= 6 ErrMin= 6.38D-05
 ErrMax= 5.11D-04  0.00D+00 EMaxC= 1.00D-01 BMatC= 4.17D-05 BMatP= 3.49D-07
 IDIUse=1 WtCom= 1.00D+00 WtEn= 0.00D+00
 Coeff-Com: -0.999D+01 0.304D+01 0.200D+01 0.326D-01 0.283D+01 0.339D+01
 Coeff-Com: -0.303D+00
 Coeff:     -0.999D+01 0.304D+01 0.200D+01 0.326D-01 0.283D+01 0.339D+01
 Coeff:     -0.303D+00
 Gap=     0.081 Goal=   None    Shift=    0.000
 Gap=     0.235 Goal=   None    Shift=    0.000
 RMSDP=1.17D-03 MaxDP=2.91D-02 DE= 5.22D-05 OVMax= 1.23D-01

 Cycle  36  Pass 1  IDiag  1:
 E= -231.901108414475     Delta-E=        0.000127512367 Rises=F Damp=F
 DIIS: error= 1.58D-03 at cycle  22 NSaved=   8.
 NSaved= 8 IEnMin= 1 EnMin= -231.901319914258     IErMin= 6 ErrMin= 6.38D-05
 ErrMax= 1.58D-03  0.00D+00 EMaxC= 1.00D-01 BMatC= 3.93D-04 BMatP= 3.49D-07
 IDIUse=1 WtCom= 1.00D+00 WtEn= 0.00D+00
 Coeff-Com: -0.757D+01 0.130D+01 0.198D+01-0.830D-01 0.362D+01 0.186D+01
 Coeff-Com: -0.534D-01-0.544D-01
 Coeff:     -0.757D+01 0.130D+01 0.198D+01-0.830D-01 0.362D+01 0.186D+01
 Coeff:     -0.534D-01-0.544D-01
 Gap=     0.079 Goal=   None    Shift=    0.000
 Gap=     0.236 Goal=   None    Shift=    0.000
 RMSDP=4.10D-04 MaxDP=1.03D-02 DE= 1.28D-04 OVMax= 4.28D-02

 Cycle  37  Pass 1  IDiag  1:
 E= -231.901174075964     Delta-E=       -0.000065661489 Rises=F Damp=F
 DIIS: error= 1.12D-03 at cycle  23 NSaved=   9.
 NSaved= 9 IEnMin= 1 EnMin= -231.901319914258     IErMin= 6 ErrMin= 6.38D-05
 ErrMax= 1.12D-03  0.00D+00 EMaxC= 1.00D-01 BMatC= 1.96D-04 BMatP= 3.49D-07
 IDIUse=1 WtCom= 1.00D+00 WtEn= 0.00D+00
 Coeff-Com: -0.790D+01 0.718D+01-0.125D+01-0.140D+00-0.112D+01 0.464D+01
 Coeff-Com: -0.812D+00-0.402D+00 0.790D+00
 Coeff:     -0.790D+01 0.718D+01-0.125D+01-0.140D+00-0.112D+01 0.464D+01
 Coeff:     -0.812D+00-0.402D+00 0.790D+00
 Gap=     0.076 Goal=   None    Shift=    0.000
 Gap=     0.237 Goal=   None    Shift=    0.000
 RMSDP=4.58D-04 MaxDP=1.14D-02 DE=-6.57D-05 OVMax= 4.78D-02

 Cycle  38  Pass 1  IDiag  1:
 E= -231.901222661029     Delta-E=       -0.000048585065 Rises=F Damp=F
 DIIS: error= 6.38D-04 at cycle  24 NSaved=  10.
 NSaved=10 IEnMin= 1 EnMin= -231.901319914258     IErMin= 6 ErrMin= 6.38D-05
 ErrMax= 6.38D-04  0.00D+00 EMaxC= 1.00D-01 BMatC= 6.50D-05 BMatP= 3.49D-07
 IDIUse=1 WtCom= 1.00D+00 WtEn= 0.00D+00
 Coeff-Com: -0.629D+01 0.215D+01 0.187D+01 0.705D-01 0.110D+01 0.144D+01
 Coeff-Com: -0.449D+00 0.129D+01-0.367D+01 0.348D+01
 Coeff:     -0.629D+01 0.215D+01 0.187D+01 0.705D-01 0.110D+01 0.144D+01
 Coeff:     -0.449D+00 0.129D+01-0.367D+01 0.348D+01
 Gap=     0.078 Goal=   None    Shift=    0.000
 Gap=     0.236 Goal=   None    Shift=    0.000
 RMSDP=4.90D-04 MaxDP=1.22D-02 DE=-4.86D-05 OVMax= 5.14D-02

 Cycle  39  Pass 1  IDiag  1:
 E= -231.901197741081     Delta-E=        0.000024919948 Rises=F Damp=F
 DIIS: error= 9.08D-04 at cycle  25 NSaved=  11.
 NSaved=11 IEnMin= 1 EnMin= -231.901319914258     IErMin= 6 ErrMin= 6.38D-05
 ErrMax= 9.08D-04  0.00D+00 EMaxC= 1.00D-01 BMatC= 1.31D-04 BMatP= 3.49D-07
 IDIUse=1 WtCom= 1.00D+00 WtEn= 0.00D+00
 Coeff-Com: -0.172D+01-0.345D+00 0.136D+01 0.137D+00 0.495D+00 0.207D+00
 Coeff-Com: -0.278D+00 0.887D+00-0.381D+01 0.264D+01 0.142D+01
 Coeff:     -0.172D+01-0.345D+00 0.136D+01 0.137D+00 0.495D+00 0.207D+00
 Coeff:     -0.278D+00 0.887D+00-0.381D+01 0.264D+01 0.142D+01
 Gap=     0.072 Goal=   None    Shift=    0.000
 Gap=     0.238 Goal=   None    Shift=    0.000
 RMSDP=4.53D-04 MaxDP=1.13D-02 DE= 2.49D-05 OVMax= 4.72D-02

 Cycle  40  Pass 1  IDiag  1:
 E= -231.901242463587     Delta-E=       -0.000044722505 Rises=F Damp=F
 DIIS: error= 2.31D-04 at cycle  26 NSaved=  12.
 NSaved=12 IEnMin= 1 EnMin= -231.901319914258     IErMin= 6 ErrMin= 6.38D-05
 ErrMax= 2.31D-04  0.00D+00 EMaxC= 1.00D-01 BMatC= 8.53D-06 BMatP= 3.49D-07
 IDIUse=1 WtCom= 1.00D+00 WtEn= 0.00D+00
 Coeff-Com:  0.511D+00-0.597D+01 0.325D+01 0.128D+00 0.418D+01-0.236D+01
 Coeff-Com:  0.619D+00 0.768D-01-0.862D+00-0.783D+00 0.823D+00 0.139D+01
 Coeff:      0.511D+00-0.597D+01 0.325D+01 0.128D+00 0.418D+01-0.236D+01
 Coeff:      0.619D+00 0.768D-01-0.862D+00-0.783D+00 0.823D+00 0.139D+01
 Gap=     0.074 Goal=   None    Shift=    0.000
 Gap=     0.237 Goal=   None    Shift=    0.000
 RMSDP=6.38D-04 MaxDP=1.57D-02 DE=-4.47D-05 OVMax= 6.70D-02

 Cycle  41  Pass 1  IDiag  1:
 E= -231.901230159026     Delta-E=        0.000012304561 Rises=F Damp=F
 DIIS: error= 5.23D-04 at cycle  27 NSaved=  13.
 NSaved=13 IEnMin= 1 EnMin= -231.901319914258     IErMin= 6 ErrMin= 6.38D-05
 ErrMax= 5.23D-04  0.00D+00 EMaxC= 1.00D-01 BMatC= 4.33D-05 BMatP= 3.49D-07
 IDIUse=1 WtCom= 1.00D+00 WtEn= 0.00D+00
 Coeff-Com:  0.906D+00-0.730D+00-0.144D+00 0.124D-01 0.151D+00-0.154D+00
 Coeff-Com:  0.723D-01-0.292D+00 0.348D+00-0.643D+00-0.221D+00 0.807D+00
 Coeff-Com:  0.888D+00
 Coeff:      0.906D+00-0.730D+00-0.144D+00 0.124D-01 0.151D+00-0.154D+00
 Coeff:      0.723D-01-0.292D+00 0.348D+00-0.643D+00-0.221D+00 0.807D+00
 Coeff:      0.888D+00
 Gap=     0.069 Goal=   None    Shift=    0.000
 Gap=     0.239 Goal=   None    Shift=    0.000
 RMSDP=4.46D-04 MaxDP=1.08D-02 DE= 1.23D-05 OVMax= 4.65D-02

 Cycle  42  Pass 1  IDiag  1:
 E= -231.901243162647     Delta-E=       -0.000013003621 Rises=F Damp=F
 DIIS: error= 1.27D-04 at cycle  28 NSaved=  14.
 NSaved=14 IEnMin= 1 EnMin= -231.901319914258     IErMin= 6 ErrMin= 6.38D-05
 ErrMax= 1.27D-04  0.00D+00 EMaxC= 1.00D-01 BMatC= 2.60D-06 BMatP= 3.49D-07
 IDIUse=1 WtCom= 1.00D+00 WtEn= 0.00D+00
 Coeff-Com: -0.360D+00-0.439D-01 0.129D+00-0.753D-02 0.289D+00-0.111D-02
 Coeff-Com:  0.357D-01-0.898D-01 0.273D+00-0.832D-01-0.356D+00 0.140D+00
 Coeff-Com:  0.458D+00 0.618D+00
 Coeff:     -0.360D+00-0.439D-01 0.129D+00-0.753D-02 0.289D+00-0.111D-02
 Coeff:      0.357D-01-0.898D-01 0.273D+00-0.832D-01-0.356D+00 0.140D+00
 Coeff:      0.458D+00 0.618D+00
 Gap=     0.071 Goal=   None    Shift=    0.000
 Gap=     0.238 Goal=   None    Shift=    0.000
 RMSDP=1.90D-04 MaxDP=4.66D-03 DE=-1.30D-05 OVMax= 1.98D-02

 Cycle  43  Pass 1  IDiag  1:
 E= -231.901243504225     Delta-E=       -0.000000341579 Rises=F Damp=F
 DIIS: error= 8.35D-05 at cycle  29 NSaved=  15.
 NSaved=15 IEnMin= 1 EnMin= -231.901319914258     IErMin= 6 ErrMin= 6.38D-05
 ErrMax= 8.35D-05  0.00D+00 EMaxC= 1.00D-01 BMatC= 1.11D-06 BMatP= 3.49D-07
 IDIUse=1 WtCom= 1.00D+00 WtEn= 0.00D+00
 Coeff-Com: -0.108D+00 0.286D+00-0.118D+00-0.444D-02-0.162D+00 0.125D+00
 Coeff-Com: -0.266D-01 0.204D-01-0.448D-03 0.696D-01-0.897D-01-0.409D-01
 Coeff-Com: -0.351D-01 0.223D+00 0.861D+00
 Coeff:     -0.108D+00 0.286D+00-0.118D+00-0.444D-02-0.162D+00 0.125D+00
 Coeff:     -0.266D-01 0.204D-01-0.448D-03 0.696D-01-0.897D-01-0.409D-01
 Coeff:     -0.351D-01 0.223D+00 0.861D+00
 Gap=     0.071 Goal=   None    Shift=    0.000
 Gap=     0.238 Goal=   None    Shift=    0.000
 RMSDP=7.25D-05 MaxDP=1.77D-03 DE=-3.42D-07 OVMax= 7.57D-03

 Cycle  44  Pass 1  IDiag  1:
 E= -231.901243824905     Delta-E=       -0.000000320680 Rises=F Damp=F
 DIIS: error= 1.11D-05 at cycle  30 NSaved=  16.
 NSaved=16 IEnMin= 1 EnMin= -231.901319914258     IErMin=16 ErrMin= 1.11D-05
 ErrMax= 1.11D-05  0.00D+00 EMaxC= 1.00D-01 BMatC= 1.97D-08 BMatP= 3.49D-07
 IDIUse=1 WtCom= 1.00D+00 WtEn= 0.00D+00
 Coeff-Com:  0.510D-01-0.287D-01 0.711D-03 0.249D-03-0.383D-02-0.225D-01
 Coeff-Com:  0.738D-03 0.623D-03-0.149D-01 0.831D-03 0.360D-01-0.113D-01
 Coeff-Com: -0.178D-01-0.877D-01-0.443D-01 0.114D+01
 Coeff:      0.510D-01-0.287D-01 0.711D-03 0.249D-03-0.383D-02-0.225D-01
 Coeff:      0.738D-03 0.623D-03-0.149D-01 0.831D-03 0.360D-01-0.113D-01
 Coeff:     -0.178D-01-0.877D-01-0.443D-01 0.114D+01
 Gap=     0.071 Goal=   None    Shift=    0.000
 Gap=     0.238 Goal=   None    Shift=    0.000
 RMSDP=7.93D-07 MaxDP=1.98D-05 DE=-3.21D-07 OVMax= 8.09D-05

 Cycle  45  Pass 1  IDiag  1:
 E= -231.901243827557     Delta-E=       -0.000000002652 Rises=F Damp=F
 DIIS: error= 8.90D-06 at cycle  31 NSaved=  17.
 NSaved=17 IEnMin= 1 EnMin= -231.901319914258     IErMin=17 ErrMin= 8.90D-06
 ErrMax= 8.90D-06  0.00D+00 EMaxC= 1.00D-01 BMatC= 1.27D-08 BMatP= 1.97D-08
 IDIUse=1 WtCom= 1.00D+00 WtEn= 0.00D+00
 Coeff-Com:  0.156D-02-0.129D-01 0.602D-02 0.284D-04 0.897D-02-0.517D-02
 Coeff-Com:  0.122D-02-0.346D-02 0.547D-02-0.414D-02 0.388D-02-0.970D-03
 Coeff-Com:  0.722D-02-0.254D-01 0.249D-02-0.201D-01 0.104D+01
 Coeff:      0.156D-02-0.129D-01 0.602D-02 0.284D-04 0.897D-02-0.517D-02
 Coeff:      0.122D-02-0.346D-02 0.547D-02-0.414D-02 0.388D-02-0.970D-03
 Coeff:      0.722D-02-0.254D-01 0.249D-02-0.201D-01 0.104D+01
 Gap=     0.071 Goal=   None    Shift=    0.000
 Gap=     0.238 Goal=   None    Shift=    0.000
 RMSDP=9.46D-06 MaxDP=2.32D-04 DE=-2.65D-09 OVMax= 9.91D-04

 Cycle  46  Pass 1  IDiag  1:
 E= -231.901243830748     Delta-E=       -0.000000003191 Rises=F Damp=F
 DIIS: error= 2.01D-06 at cycle  32 NSaved=  18.
 NSaved=18 IEnMin= 1 EnMin= -231.901319914258     IErMin=18 ErrMin= 2.01D-06
 ErrMax= 2.01D-06  0.00D+00 EMaxC= 1.00D-01 BMatC= 6.44D-10 BMatP= 1.27D-08
 IDIUse=1 WtCom= 1.00D+00 WtEn= 0.00D+00
 Coeff-Com:  0.465D-03 0.213D-02-0.167D-02 0.797D-04-0.299D-02 0.219D-02
 Coeff-Com: -0.498D-03 0.577D-03-0.166D-02 0.251D-03 0.133D-02-0.143D-04
 Coeff-Com: -0.220D-02-0.455D-02-0.205D-02 0.318D-01 0.991D-01 0.878D+00
 Coeff:      0.465D-03 0.213D-02-0.167D-02 0.797D-04-0.299D-02 0.219D-02
 Coeff:     -0.498D-03 0.577D-03-0.166D-02 0.251D-03 0.133D-02-0.143D-04
 Coeff:     -0.220D-02-0.455D-02-0.205D-02 0.318D-01 0.991D-01 0.878D+00
 Gap=     0.071 Goal=   None    Shift=    0.000
 Gap=     0.238 Goal=   None    Shift=    0.000
 RMSDP=1.25D-06 MaxDP=3.08D-05 DE=-3.19D-09 OVMax= 1.30D-04

 Cycle  47  Pass 1  IDiag  1:
 E= -231.901243830952     Delta-E=       -0.000000000204 Rises=F Damp=F
 DIIS: error= 1.07D-07 at cycle  33 NSaved=  19.
 NSaved=19 IEnMin= 1 EnMin= -231.901319914258     IErMin=19 ErrMin= 1.07D-07
 ErrMax= 1.07D-07  0.00D+00 EMaxC= 1.00D-01 BMatC= 1.87D-12 BMatP= 6.44D-10
 IDIUse=1 WtCom= 1.00D+00 WtEn= 0.00D+00
 Coeff-Com: -0.175D-03-0.124D-02 0.113D-02 0.284D-04 0.104D-02-0.804D-03
 Coeff-Com:  0.111D-03 0.591D-04 0.165D-03-0.199D-03-0.308D-03 0.581D-03
 Coeff-Com: -0.247D-03 0.293D-02-0.425D-02-0.905D-02-0.148D+00-0.231D+00
 Coeff-Com:  0.139D+01
 Coeff:     -0.175D-03-0.124D-02 0.113D-02 0.284D-04 0.104D-02-0.804D-03
 Coeff:      0.111D-03 0.591D-04 0.165D-03-0.199D-03-0.308D-03 0.581D-03
 Coeff:     -0.247D-03 0.293D-02-0.425D-02-0.905D-02-0.148D+00-0.231D+00
 Coeff:      0.139D+01
 Gap=     0.071 Goal=   None    Shift=    0.000
 Gap=     0.238 Goal=   None    Shift=    0.000
 RMSDP=1.25D-07 MaxDP=3.10D-06 DE=-2.04D-10 OVMax= 1.31D-05

 Cycle  48  Pass 1  IDiag  1:
 E= -231.901243830953     Delta-E=       -0.000000000001 Rises=F Damp=F
 DIIS: error= 2.85D-08 at cycle  34 NSaved=  20.
 NSaved=20 IEnMin= 1 EnMin= -231.901319914258     IErMin=20 ErrMin= 2.85D-08
 ErrMax= 2.85D-08  0.00D+00 EMaxC= 1.00D-01 BMatC= 1.34D-13 BMatP= 1.87D-12
 IDIUse=1 WtCom= 1.00D+00 WtEn= 0.00D+00
 Large coefficients: NSaved= 20 BigCof=    0.00 CofMax=   10.00 Det=-9.68D-16
 Inversion failed.  Reducing to 19 matrices.
 Large coefficients: NSaved= 19 BigCof=    0.00 CofMax=   10.00 Det=-9.70D-16
 Inversion failed.  Reducing to 18 matrices.
 Large coefficients: NSaved= 18 BigCof=    0.00 CofMax=   10.00 Det=-9.94D-16
 Inversion failed.  Reducing to 17 matrices.
 Large coefficients: NSaved= 17 BigCof=    0.00 CofMax=   10.00 Det=-1.05D-15
 Inversion failed.  Reducing to 16 matrices.
 Large coefficients: NSaved= 16 BigCof=    0.00 CofMax=   10.00 Det=-1.11D-15
 Inversion failed.  Reducing to 15 matrices.
 Coeff-Com:  0.219D-03-0.359D-03 0.148D-03-0.931D-05 0.240D-03-0.226D-03
 Coeff-Com:  0.159D-04-0.302D-04-0.435D-03 0.808D-03-0.224D-03 0.809D-02
 Coeff-Com: -0.569D-01-0.250D+00 0.130D+01
 Coeff:      0.219D-03-0.359D-03 0.148D-03-0.931D-05 0.240D-03-0.226D-03
 Coeff:      0.159D-04-0.302D-04-0.435D-03 0.808D-03-0.224D-03 0.809D-02
 Coeff:     -0.569D-01-0.250D+00 0.130D+01
 Gap=     0.071 Goal=   None    Shift=    0.000
 Gap=     0.238 Goal=   None    Shift=    0.000
 RMSDP=7.17D-08 MaxDP=1.77D-06 DE=-1.08D-12 OVMax= 7.51D-06

 Cycle  49  Pass 1  IDiag  1:
 E= -231.901243830952     Delta-E=        0.000000000001 Rises=F Damp=F
 DIIS: error= 4.77D-08 at cycle  35 NSaved=  16.
 NSaved=16 IEnMin= 1 EnMin= -231.901319914258     IErMin=15 ErrMin= 2.85D-08
 ErrMax= 4.77D-08  0.00D+00 EMaxC= 1.00D-01 BMatC= 3.64D-13 BMatP= 1.34D-13
 IDIUse=1 WtCom= 1.00D+00 WtEn= 0.00D+00
 Large coefficients: NSaved= 16 BigCof=    0.00 CofMax=   10.00 Det=-5.00D-16
 Inversion failed.  Reducing to 15 matrices.
 Coeff-Com: -0.134D-04-0.513D-04-0.286D-04-0.119D-04 0.758D-04 0.388D-04
 Coeff-Com: -0.747D-04-0.571D-03 0.144D-02 0.154D-03 0.294D-01 0.455D-01
 Coeff-Com: -0.357D+00 0.241D+00 0.104D+01
 Coeff:     -0.134D-04-0.513D-04-0.286D-04-0.119D-04 0.758D-04 0.388D-04
 Coeff:     -0.747D-04-0.571D-03 0.144D-02 0.154D-03 0.294D-01 0.455D-01
 Coeff:     -0.357D+00 0.241D+00 0.104D+01
 Gap=     0.071 Goal=   None    Shift=    0.000
 Gap=     0.238 Goal=   None    Shift=    0.000
 RMSDP=5.16D-08 MaxDP=1.27D-06 DE= 9.09D-13 OVMax= 5.39D-06

 Cycle  50  Pass 1  IDiag  1:
 E= -231.901243830953     Delta-E=       -0.000000000001 Rises=F Damp=F
 DIIS: error= 2.32D-08 at cycle  36 NSaved=  16.
 NSaved=16 IEnMin= 1 EnMin= -231.901319914258     IErMin=16 ErrMin= 2.32D-08
 ErrMax= 2.32D-08  0.00D+00 EMaxC= 1.00D-01 BMatC= 8.63D-14 BMatP= 1.34D-13
 IDIUse=1 WtCom= 1.00D+00 WtEn= 0.00D+00
 Large coefficients: NSaved= 16 BigCof=    0.00 CofMax=   10.00 Det=-1.02D-16
 Inversion failed.  Reducing to 15 matrices.
 Coeff-Com: -0.197D-04 0.436D-05-0.497D-05-0.361D-05 0.105D-04 0.113D-04
 Coeff-Com: -0.419D-04 0.196D-03 0.206D-03 0.667D-02 0.118D-01-0.376D-01
 Coeff-Com: -0.119D+00 0.157D+00 0.980D+00
 Coeff:     -0.197D-04 0.436D-05-0.497D-05-0.361D-05 0.105D-04 0.113D-04
 Coeff:     -0.419D-04 0.196D-03 0.206D-03 0.667D-02 0.118D-01-0.376D-01
 Coeff:     -0.119D+00 0.157D+00 0.980D+00
 Gap=     0.071 Goal=   None    Shift=    0.000
 Gap=     0.238 Goal=   None    Shift=    0.000
 RMSDP=1.82D-08 MaxDP=4.48D-07 DE=-8.53D-13 OVMax= 1.91D-06

 Cycle  51  Pass 1  IDiag  1:
 E= -231.901243830952     Delta-E=        0.000000000000 Rises=F Damp=F
 DIIS: error= 9.23D-09 at cycle  37 NSaved=  16.
 NSaved=16 IEnMin= 1 EnMin= -231.901319914258     IErMin=16 ErrMin= 9.23D-09
 ErrMax= 9.23D-09  0.00D+00 EMaxC= 1.00D-01 BMatC= 1.36D-14 BMatP= 8.63D-14
 IDIUse=1 WtCom= 1.00D+00 WtEn= 0.00D+00
 Large coefficients: NSaved= 16 BigCof=    0.00 CofMax=   10.00 Det=-8.97D-18
 Inversion failed.  Reducing to 15 matrices.
 Coeff-Com: -0.284D-05 0.113D-04-0.444D-05-0.887D-06-0.419D-05 0.233D-05
 Coeff-Com: -0.343D-04 0.283D-03 0.118D-03-0.185D-02 0.883D-02-0.122D-01
 Coeff-Com: -0.278D-01 0.803D-01 0.952D+00
 Coeff:     -0.284D-05 0.113D-04-0.444D-05-0.887D-06-0.419D-05 0.233D-05
 Coeff:     -0.343D-04 0.283D-03 0.118D-03-0.185D-02 0.883D-02-0.122D-01
 Coeff:     -0.278D-01 0.803D-01 0.952D+00
 Gap=     0.071 Goal=   None    Shift=    0.000
 Gap=     0.238 Goal=   None    Shift=    0.000
 RMSDP=9.53D-09 MaxDP=2.34D-07 DE= 2.84D-13 OVMax= 9.97D-07

 SCF Done:  E(UPBE1PBE) =  -231.901243831     A.U. after   51 cycles
            NFock= 51  Conv=0.95D-08     -V/T= 2.0073
 <Sx>= 0.0000 <Sy>= 0.0000 <Sz>= 0.5000 <S**2>= 0.7595 S= 0.5047
 <L.S>=  0.00000000000    
 KE= 2.302194181896D+02 PE=-9.538153680141D+02 EE= 2.882839769278D+02
 Annihilation of the first spin contaminant:
 S**2 before annihilation     0.7595,   after     0.7500
 Leave Link  502 at Mon Jun 20 17:12:57 2022, MaxMem=  1342177280 cpu:             297.6 elap:              78.2
 (Enter /gpfs1/apps/software/Gaussian16/AVX/g16/l601.exe)
 Copying SCF densities to generalized density rwf, IOpCl= 1 IROHF=0.

 **********************************************************************

            Population analysis using the SCF Density.

 **********************************************************************

 Orbital symmetries:
 Alpha Orbitals:
       Occupied  (A) (A) (A) (A) (A) (A) (A) (A) (A) (A) (A) (A)
                 (A) (A) (A) (A) (A) (A) (A) (A) (A) (A)
       Virtual   (A) (A) (A) (A) (A) (A) (A) (A) (A) (A) (A) (A)
                 (A) (A) (A) (A) (A) (A) (A) (A) (A) (A) (A) (A)
                 (A) (A) (A) (A) (A) (A) (A) (A) (A) (A) (A) (A)
                 (A) (A) (A) (A) (A) (A) (A) (A) (A) (A) (A) (A)
                 (A) (A) (A) (A) (A) (A) (A) (A) (A) (A) (A) (A)
                 (A) (A) (A) (A) (A) (A) (A) (A) (A) (A) (A) (A)
                 (A) (A) (A) (A) (A) (A) (A) (A) (A) (A) (A) (A)
                 (A) (A) (A) (A) (A) (A) (A) (A) (A) (A) (A) (A)
                 (A) (A)
 Beta  Orbitals:
       Occupied  (A) (A) (A) (A) (A) (A) (A) (A) (A) (A) (A) (A)
                 (A) (A) (A) (A) (A) (A) (A) (A) (A)
       Virtual   (A) (A) (A) (A) (A) (A) (A) (A) (A) (A) (A) (A)
                 (A) (A) (A) (A) (A) (A) (A) (A) (A) (A) (A) (A)
                 (A) (A) (A) (A) (A) (A) (A) (A) (A) (A) (A) (A)
                 (A) (A) (A) (A) (A) (A) (A) (A) (A) (A) (A) (A)
                 (A) (A) (A) (A) (A) (A) (A) (A) (A) (A) (A) (A)
                 (A) (A) (A) (A) (A) (A) (A) (A) (A) (A) (A) (A)
                 (A) (A) (A) (A) (A) (A) (A) (A) (A) (A) (A) (A)
                 (A) (A) (A) (A) (A) (A) (A) (A) (A) (A) (A) (A)
                 (A) (A) (A)
 The electronic state is 2-A.
 Alpha  occ. eigenvalues --  -10.00927 -10.00927 -10.00843 -10.00841  -9.98120
 Alpha  occ. eigenvalues --   -9.98119  -0.64308  -0.53943  -0.53497  -0.39471
 Alpha  occ. eigenvalues --   -0.39430  -0.31466  -0.26001  -0.22212  -0.21211
 Alpha  occ. eigenvalues --   -0.20334  -0.15797  -0.12953  -0.12671  -0.04743
 Alpha  occ. eigenvalues --   -0.04574   0.15531
 Alpha virt. eigenvalues --    0.22600   0.28687   0.33726   0.34306   0.37365
 Alpha virt. eigenvalues --    0.37471   0.37879   0.37948   0.51550   0.51708
 Alpha virt. eigenvalues --    0.53675   0.53856   0.68704   0.75825   0.77465
 Alpha virt. eigenvalues --    0.78195   0.78418   0.81369   0.82811   0.83005
 Alpha virt. eigenvalues --    0.83383   0.84013   0.85567   0.85584   0.88999
 Alpha virt. eigenvalues --    0.89561   0.96558   1.03936   1.04770   1.05718
 Alpha virt. eigenvalues --    1.05874   1.06935   1.14827   1.16488   1.16665
 Alpha virt. eigenvalues --    1.19595   1.29859   1.29968   1.36030   1.36395
 Alpha virt. eigenvalues --    1.42653   1.49524   1.52749   1.63267   1.63810
 Alpha virt. eigenvalues --    1.65923   1.65929   1.66066   1.66118   1.98147
 Alpha virt. eigenvalues --    1.99708   2.05156   2.10827   2.15643   2.16335
 Alpha virt. eigenvalues --    2.20365   2.20708   2.20959   2.20985   2.24923
 Alpha virt. eigenvalues --    2.30985   2.31126   2.53372   2.53439   2.58517
 Alpha virt. eigenvalues --    2.58687   2.58720   2.63140   2.63387   2.64231
 Alpha virt. eigenvalues --    2.67437   2.67960   2.73361   2.73441   2.75658
 Alpha virt. eigenvalues --    2.82037   2.82379   2.83051   2.89909   3.00190
 Alpha virt. eigenvalues --    3.04827   3.04938   3.28389   3.29191   3.43146
 Alpha virt. eigenvalues --    3.47009   3.47833   3.48984   3.63532   3.74769
 Alpha virt. eigenvalues --    3.75729   4.20301   4.39831   4.42326   4.43112
 Alpha virt. eigenvalues --    4.69648   4.70404   5.09095
  Beta  occ. eigenvalues --  -10.00882 -10.00882 -10.00788 -10.00786  -9.97457
  Beta  occ. eigenvalues --   -9.97455  -0.63556  -0.53428  -0.52295  -0.39287
  Beta  occ. eigenvalues --   -0.38099  -0.31179  -0.25427  -0.21833  -0.21117
  Beta  occ. eigenvalues --   -0.19969  -0.13696  -0.12723  -0.12388  -0.03068
  Beta  occ. eigenvalues --   -0.00868
  Beta virt. eigenvalues --    0.22969   0.25711   0.28843   0.33778   0.34525
  Beta virt. eigenvalues --    0.37669   0.38315   0.38475   0.40762   0.51861
  Beta virt. eigenvalues --    0.52158   0.53895   0.54323   0.68970   0.77067
  Beta virt. eigenvalues --    0.78247   0.78580   0.78758   0.81821   0.83453
  Beta virt. eigenvalues --    0.84362   0.84575   0.85039   0.86074   0.86333
  Beta virt. eigenvalues --    0.89963   0.91965   0.98284   1.03947   1.05147
  Beta virt. eigenvalues --    1.05923   1.06000   1.07434   1.15126   1.17022
  Beta virt. eigenvalues --    1.17125   1.19856   1.30212   1.31268   1.36196
  Beta virt. eigenvalues --    1.36751   1.43303   1.50876   1.53769   1.63742
  Beta virt. eigenvalues --    1.65501   1.66084   1.66656   1.67260   1.67335
  Beta virt. eigenvalues --    1.99509   1.99878   2.05537   2.11520   2.15760
  Beta virt. eigenvalues --    2.17007   2.21003   2.21255   2.21533   2.22042
  Beta virt. eigenvalues --    2.25662   2.31486   2.32670   2.54013   2.55297
  Beta virt. eigenvalues --    2.58510   2.59047   2.59064   2.63101   2.63880
  Beta virt. eigenvalues --    2.64839   2.67924   2.68198   2.73702   2.74517
  Beta virt. eigenvalues --    2.76438   2.82106   2.82540   2.84266   2.91433
  Beta virt. eigenvalues --    3.01032   3.05063   3.05570   3.28459   3.29431
  Beta virt. eigenvalues --    3.43913   3.47064   3.47853   3.49093   3.63698
  Beta virt. eigenvalues --    3.74799   3.76033   4.20579   4.40460   4.42566
  Beta virt. eigenvalues --    4.44209   4.69855   4.71581   5.09765
     Alpha Molecular Orbital Coefficients:
                          17        18        19        20        21
                           O         O         O         O         O
     Eigenvalues --    -0.15797  -0.12953  -0.12671  -0.04743  -0.04574
   1 1   C  1S         -0.00001   0.00016   0.00773   0.00000   0.00008
   2        2S          0.00002  -0.00050  -0.02491   0.00000  -0.00014
   3        2PX        -0.00109  -0.22661  -0.11302   0.00030  -0.00008
   4        2PY        -0.00075  -0.14173   0.18358   0.00013   0.00005
   5        2PZ         0.22201  -0.00123   0.00004  -0.34109   0.00605
   6        3S         -0.00001   0.00022   0.01163  -0.00000  -0.00072
   7        3PX        -0.00046  -0.09797  -0.01456   0.00026  -0.00012
   8        3PY        -0.00027  -0.06255   0.02616   0.00011   0.00015
   9        3PZ         0.13347  -0.00077   0.00003  -0.26735   0.00495
  10        4XX        -0.00004  -0.00905  -0.00372  -0.00001   0.00002
  11        4YY         0.00004   0.00915   0.00988   0.00001  -0.00000
  12        4ZZ         0.00000   0.00001  -0.00031  -0.00000  -0.00001
  13        4XY         0.00002   0.00442  -0.01779   0.00001   0.00003
  14        4XZ         0.00437  -0.00002  -0.00002  -0.00184  -0.01419
  15        4YZ        -0.00682   0.00004  -0.00002   0.00239  -0.00920
  16 2   C  1S         -0.00003  -0.01021  -0.00422  -0.00004  -0.00001
  17        2S          0.00011   0.02863   0.01144   0.00010  -0.00002
  18        2PX         0.00049   0.17728   0.10885   0.00029  -0.00042
  19        2PY         0.00078   0.14138  -0.22770  -0.00014   0.00012
  20        2PZ         0.21375  -0.00075   0.00036  -0.14938   0.28656
  21        3S         -0.00010  -0.00173  -0.00014   0.00018   0.00031
  22        3PX        -0.00014   0.01520   0.01372   0.00016  -0.00009
  23        3PY         0.00038   0.05988  -0.10067  -0.00005   0.00020
  24        3PZ         0.13127  -0.00060   0.00016  -0.10591   0.22110
  25        4XX        -0.00008  -0.01891  -0.00985   0.00000   0.00001
  26        4YY         0.00004   0.01298   0.00616  -0.00000  -0.00004
  27        4ZZ         0.00002   0.00025   0.00077  -0.00000   0.00001
  28        4XY         0.00002   0.00362  -0.01036   0.00001  -0.00000
  29        4XZ         0.00850  -0.00006  -0.00000  -0.00110   0.00353
  30        4YZ        -0.00075  -0.00001  -0.00001  -0.01547  -0.01087
  31 3   C  1S          0.00004   0.01004  -0.00451  -0.00004   0.00001
  32        2S         -0.00013  -0.02821   0.01230   0.00009   0.00003
  33        2PX        -0.00081  -0.20746  -0.15547  -0.00000   0.00013
  34        2PY        -0.00026  -0.09677   0.19652   0.00034   0.00043
  35        2PZ         0.21396  -0.00074  -0.00018   0.15927   0.28169
  36        3S          0.00008   0.00188  -0.00025   0.00017  -0.00030
  37        3PX        -0.00023  -0.06381  -0.08385   0.00003  -0.00010
  38        3PY         0.00026   0.01248   0.05375   0.00020   0.00017
  39        3PZ         0.13136  -0.00059  -0.00004   0.11348   0.21792
  40        4XX        -0.00003  -0.01001  -0.00298   0.00000   0.00003
  41        4YY         0.00008   0.01579  -0.00090  -0.00000  -0.00000
  42        4ZZ        -0.00002  -0.00022   0.00078  -0.00000  -0.00001
  43        4XY         0.00004   0.01098  -0.01415   0.00000  -0.00002
  44        4XZ         0.00280  -0.00003   0.00002   0.01419  -0.00897
  45        4YZ         0.00805  -0.00005   0.00001  -0.00509   0.00788
  46 4   C  1S          0.00000   0.00015   0.00772  -0.00000  -0.00008
  47        2S          0.00000  -0.00050  -0.02488   0.00001   0.00014
  48        2PX         0.00110   0.22672   0.11301   0.00030  -0.00004
  49        2PY         0.00078   0.14167  -0.18342   0.00019   0.00008
  50        2PZ         0.22196  -0.00126   0.00010   0.34112  -0.00611
  51        3S         -0.00001   0.00021   0.01166   0.00001   0.00073
  52        3PX         0.00044   0.09800   0.01456   0.00026  -0.00010
  53        3PY         0.00029   0.06252  -0.02609   0.00014   0.00018
  54        3PZ         0.13344  -0.00079   0.00007   0.26738  -0.00498
  55        4XX        -0.00004  -0.00906  -0.00373   0.00001  -0.00002
  56        4YY         0.00004   0.00915   0.00988  -0.00001   0.00000
  57        4ZZ         0.00000   0.00000  -0.00031   0.00000   0.00001
  58        4XY         0.00003   0.00441  -0.01778  -0.00000  -0.00003
  59        4XZ        -0.00437   0.00003   0.00002  -0.00184  -0.01419
  60        4YZ         0.00682  -0.00004   0.00002   0.00240  -0.00920
  61 5   C  1S         -0.00004  -0.01021  -0.00424   0.00004   0.00001
  62        2S          0.00013   0.02863   0.01151  -0.00011   0.00003
  63        2PX        -0.00051  -0.17734  -0.10901   0.00030  -0.00045
  64        2PY        -0.00077  -0.14138   0.22762  -0.00019   0.00006
  65        2PZ         0.21376  -0.00071   0.00036   0.14945  -0.28651
  66        3S         -0.00009  -0.00176  -0.00003  -0.00018  -0.00029
  67        3PX         0.00016  -0.01524  -0.01379   0.00016  -0.00010
  68        3PY        -0.00038  -0.05988   0.10066  -0.00008   0.00018
  69        3PZ         0.13128  -0.00057   0.00016   0.10596  -0.22105
  70        4XX        -0.00008  -0.01891  -0.00985  -0.00000  -0.00002
  71        4YY         0.00003   0.01299   0.00616   0.00000   0.00004
  72        4ZZ         0.00002   0.00025   0.00077   0.00000  -0.00002
  73        4XY         0.00002   0.00361  -0.01036  -0.00000   0.00000
  74        4XZ        -0.00850   0.00006   0.00001  -0.00110   0.00353
  75        4YZ         0.00075   0.00001   0.00001  -0.01547  -0.01087
  76 6   C  1S          0.00004   0.01000  -0.00452   0.00003  -0.00001
  77        2S         -0.00014  -0.02814   0.01231  -0.00009  -0.00003
  78        2PX         0.00078   0.20738   0.15545  -0.00000   0.00016
  79        2PY         0.00019   0.09668  -0.19655   0.00039   0.00049
  80        2PZ         0.21401  -0.00066  -0.00024  -0.15930  -0.28164
  81        3S          0.00011   0.00202  -0.00024  -0.00016   0.00031
  82        3PX         0.00021   0.06375   0.08380   0.00004  -0.00009
  83        3PY        -0.00030  -0.01250  -0.05374   0.00023   0.00021
  84        3PZ         0.13138  -0.00056  -0.00007  -0.11348  -0.21788
  85        4XX        -0.00003  -0.01001  -0.00299  -0.00001  -0.00003
  86        4YY         0.00007   0.01579  -0.00090   0.00000   0.00001
  87        4ZZ        -0.00002  -0.00022   0.00078   0.00000   0.00001
  88        4XY         0.00004   0.01098  -0.01416   0.00000   0.00002
  89        4XZ        -0.00280   0.00003  -0.00001   0.01419  -0.00896
  90        4YZ        -0.00805   0.00005  -0.00001  -0.00510   0.00787
  91 7   H  1S         -0.00004   0.00277   0.16719  -0.00002  -0.00006
  92        2S         -0.00006   0.00387   0.23455  -0.00002  -0.00006
  93        3PX        -0.00002  -0.00364   0.00174   0.00001   0.00000
  94        3PY        -0.00001  -0.00241  -0.00256   0.00001  -0.00000
  95        3PZ         0.00522  -0.00003   0.00000  -0.00945   0.00017
  96 8   H  1S         -0.00056  -0.14380  -0.07943  -0.00004   0.00011
  97        2S         -0.00077  -0.20462  -0.11366  -0.00009   0.00021
  98        3PX        -0.00002  -0.00253  -0.00114   0.00000  -0.00001
  99        3PY         0.00001   0.00207  -0.00408  -0.00000   0.00001
 100        3PZ         0.00508  -0.00003   0.00000  -0.00431   0.00825
 101 9   H  1S          0.00062   0.14117  -0.08426  -0.00005  -0.00012
 102        2S          0.00086   0.20078  -0.12053  -0.00008  -0.00022
 103        3PX         0.00000  -0.00097  -0.00415   0.00000   0.00000
 104        3PY         0.00002   0.00318   0.00054   0.00001   0.00001
 105        3PZ         0.00508  -0.00003   0.00000   0.00459   0.00810
 106 10  H  1S         -0.00005   0.00285   0.16709  -0.00001   0.00004
 107        2S         -0.00007   0.00397   0.23439  -0.00002   0.00004
 108        3PX         0.00002   0.00364  -0.00174   0.00001   0.00000
 109        3PY         0.00001   0.00241   0.00256   0.00001  -0.00000
 110        3PZ         0.00522  -0.00003   0.00000   0.00946  -0.00017
 111 11  H  1S         -0.00056  -0.14388  -0.07951   0.00005  -0.00014
 112        2S         -0.00078  -0.20472  -0.11379   0.00010  -0.00026
 113        3PX         0.00002   0.00253   0.00114   0.00000  -0.00001
 114        3PY        -0.00001  -0.00206   0.00408  -0.00000   0.00000
 115        3PZ         0.00507  -0.00003   0.00000   0.00431  -0.00825
 116 12  H  1S          0.00059   0.14112  -0.08430   0.00007   0.00014
 117        2S          0.00082   0.20070  -0.12056   0.00011   0.00025
 118        3PX        -0.00000   0.00097   0.00415   0.00000   0.00000
 119        3PY        -0.00002  -0.00318  -0.00053   0.00001   0.00001
 120        3PZ         0.00508  -0.00003   0.00000  -0.00459  -0.00810
                          22        23        24        25        26
                           O         V         V         V         V
     Eigenvalues --     0.15531   0.22600   0.28687   0.33726   0.34306
   1 1   C  1S         -0.00000  -0.00014   0.03695   0.00033   0.03334
   2        2S         -0.00000   0.00030  -0.04974   0.00018  -0.00578
   3        2PX        -0.00035   0.00002   0.06195   0.01387   0.12081
   4        2PY        -0.00017  -0.00003  -0.09630   0.00596  -0.18780
   5        2PZ         0.35217  -0.00318   0.00002   0.00055  -0.00005
   6        3S          0.00002   0.00123  -0.49893  -0.01443  -1.11407
   7        3PX        -0.00075  -0.00008   0.14091  -0.22637   0.27132
   8        3PY        -0.00042   0.00022  -0.21877  -0.14972  -0.41465
   9        3PZ         0.49699  -0.00457   0.00009   0.00043  -0.00005
  10        4XX        -0.00001   0.00004  -0.00150  -0.00868  -0.00412
  11        4YY         0.00001  -0.00002   0.01082   0.00860   0.00119
  12        4ZZ        -0.00000  -0.00003   0.00038   0.00008   0.00483
  13        4XY         0.00001   0.00008  -0.01571   0.00441  -0.00709
  14        4XZ        -0.00580  -0.02365  -0.00005  -0.00001  -0.00001
  15        4YZ         0.00849  -0.01538  -0.00003   0.00002  -0.00001
  16 2   C  1S         -0.00006  -0.00005   0.04066   0.03389   0.02393
  17        2S          0.00014   0.00011  -0.05599  -0.02132  -0.02717
  18        2PX         0.00029  -0.00046   0.12828   0.20568   0.12463
  19        2PY        -0.00006   0.00018   0.00296   0.01681  -0.00682
  20        2PZ        -0.17395   0.30220   0.00062  -0.00035   0.00023
  21        3S          0.00041   0.00039  -0.55528  -0.92030  -0.46927
  22        3PX         0.00025  -0.00083   0.30780   0.57557   0.45900
  23        3PY        -0.00065   0.00012   0.00901  -0.10460   0.26551
  24        3PZ        -0.24745   0.44253   0.00138  -0.00018   0.00042
  25        4XX        -0.00002  -0.00003   0.01901   0.00502   0.00212
  26        4YY         0.00002   0.00005  -0.00958  -0.00568  -0.00028
  27        4ZZ        -0.00001  -0.00003   0.00136   0.00417   0.00154
  28        4XY        -0.00001  -0.00000   0.00173  -0.00483   0.01009
  29        4XZ         0.00362  -0.01094  -0.00001   0.00003   0.00000
  30        4YZ         0.02601   0.01290   0.00003   0.00000   0.00001
  31 3   C  1S          0.00005  -0.00004   0.04057   0.03315  -0.02477
  32        2S         -0.00011   0.00009  -0.05583  -0.02009   0.02768
  33        2PX        -0.00008  -0.00007   0.05545   0.09901  -0.04762
  34        2PY        -0.00030  -0.00050   0.11539   0.17733  -0.12073
  35        2PZ        -0.17965  -0.29897  -0.00065   0.00033   0.00007
  36        3S         -0.00031   0.00047  -0.55388  -0.91130   0.49206
  37        3PX         0.00046  -0.00028   0.13459   0.13009  -0.43455
  38        3PY        -0.00054  -0.00070   0.27563   0.55529  -0.32249
  39        3PZ        -0.25550  -0.43770  -0.00147   0.00017   0.00021
  40        4XX        -0.00000   0.00004  -0.00359  -0.00720  -0.00653
  41        4YY         0.00001  -0.00001   0.01302   0.00643   0.00471
  42        4ZZ         0.00000  -0.00003   0.00133   0.00414  -0.00162
  43        4XY         0.00002  -0.00003   0.01357   0.00131  -0.00773
  44        4XZ         0.02503  -0.00767  -0.00002  -0.00001   0.00001
  45        4YZ        -0.00718   0.01541   0.00002  -0.00003   0.00001
[...]
         Item               Value     Threshold  Converged?
 Maximum Force            0.000122     0.000450     YES
 RMS     Force            0.000036     0.000300     YES
 Maximum Displacement     0.001544     0.001800     YES
 RMS     Displacement     0.000559     0.001200     YES
 Predicted change in Energy=-4.588325D-07
 Optimization completed.
    -- Stationary point found.
                           ----------------------------
                           !   Optimized Parameters   !
                           ! (Angstroms and Degrees)  !
 --------------------------                            --------------------------
 ! Name  Definition              Value          Derivative Info.                !
 --------------------------------------------------------------------------------
 ! R1    R(1,2)                  1.4345         -DE/DX =   -0.0001              !
 ! R2    R(1,6)                  1.4359         -DE/DX =   -0.0001              !
 ! R3    R(1,7)                  1.0867         -DE/DX =    0.0                 !
 ! R4    R(2,3)                  1.3745         -DE/DX =    0.0                 !
 ! R5    R(2,8)                  1.0929         -DE/DX =    0.0                 !
 ! R6    R(3,4)                  1.4359         -DE/DX =   -0.0001              !
 ! R7    R(3,9)                  1.0927         -DE/DX =    0.0                 !
 ! R8    R(4,5)                  1.4345         -DE/DX =   -0.0001              !
 ! R9    R(4,10)                 1.0867         -DE/DX =    0.0                 !
 ! R10   R(5,6)                  1.3745         -DE/DX =    0.0                 !
 ! R11   R(5,11)                 1.0929         -DE/DX =    0.0                 !
 ! R12   R(6,12)                 1.0927         -DE/DX =    0.0                 !
 ! A1    A(2,1,6)              116.7955         -DE/DX =    0.0                 !
 ! A2    A(2,1,7)              121.599          -DE/DX =    0.0                 !
 ! A3    A(6,1,7)              121.6055         -DE/DX =    0.0                 !
 ! A4    A(1,2,3)              121.6518         -DE/DX =    0.0                 !
 ! A5    A(1,2,8)              119.2953         -DE/DX =    0.0                 !
 ! A6    A(3,2,8)              119.0529         -DE/DX =   -0.0001              !
 ! A7    A(2,3,4)              121.5526         -DE/DX =    0.0                 !
 ! A8    A(2,3,9)              119.0995         -DE/DX =   -0.0001              !
 ! A9    A(4,3,9)              119.3479         -DE/DX =    0.0                 !
 ! A10   A(3,4,5)              116.7955         -DE/DX =    0.0                 !
 ! A11   A(3,4,10)             121.6047         -DE/DX =    0.0                 !
 ! A12   A(5,4,10)             121.5998         -DE/DX =    0.0                 !
 ! A13   A(4,5,6)              121.6518         -DE/DX =    0.0                 !
 ! A14   A(4,5,11)             119.2958         -DE/DX =    0.0                 !
 ! A15   A(6,5,11)             119.0524         -DE/DX =   -0.0001              !
 ! A16   A(1,6,5)              121.5527         -DE/DX =    0.0                 !
 ! A17   A(1,6,12)             119.3484         -DE/DX =    0.0                 !
 ! A18   A(5,6,12)             119.0988         -DE/DX =   -0.0001              !
 ! D1    D(6,1,2,3)              0.0028         -DE/DX =    0.0                 !
 ! D2    D(6,1,2,8)           -180.0018         -DE/DX =    0.0                 !
 ! D3    D(7,1,2,3)            179.9974         -DE/DX =    0.0                 !
 ! D4    D(7,1,2,8)             -0.0072         -DE/DX =    0.0                 !
 ! D5    D(2,1,6,5)              0.0046         -DE/DX =    0.0                 !
 ! D6    D(2,1,6,12)           180.0044         -DE/DX =    0.0                 !
 ! D7    D(7,1,6,5)           -179.99           -DE/DX =    0.0                 !
 ! D8    D(7,1,6,12)             0.0098         -DE/DX =    0.0                 !
 ! D9    D(1,2,3,4)             -0.0079         -DE/DX =    0.0                 !
 ! D10   D(1,2,3,9)            179.9926         -DE/DX =    0.0                 !
 ! D11   D(8,2,3,4)           -180.0033         -DE/DX =    0.0                 !
 ! D12   D(8,2,3,9)             -0.0028         -DE/DX =    0.0                 !
 ! D13   D(2,3,4,5)              0.0055         -DE/DX =    0.0                 !
 ! D14   D(2,3,4,10)          -179.9933         -DE/DX =    0.0                 !
 ! D15   D(9,3,4,5)            180.0049         -DE/DX =    0.0                 !
 ! D16   D(9,3,4,10)             0.0061         -DE/DX =    0.0                 !
 ! D17   D(3,4,5,6)              0.002          -DE/DX =    0.0                 !
 ! D18   D(3,4,5,11)          -180.0023         -DE/DX =    0.0                 !
 ! D19   D(10,4,5,6)           180.0008         -DE/DX =    0.0                 !
 ! D20   D(10,4,5,11)           -0.0035         -DE/DX =    0.0                 !
 ! D21   D(4,5,6,1)             -0.007          -DE/DX =    0.0                 !
 ! D22   D(4,5,6,12)           179.9932         -DE/DX =    0.0                 !
 ! D23   D(11,5,6,1)          -180.0027         -DE/DX =    0.0                 !
 ! D24   D(11,5,6,12)           -0.0025         -DE/DX =    0.0                 !
 --------------------------------------------------------------------------------
 GradGradGradGradGradGradGradGradGradGradGradGradGradGradGradGradGradGrad

 Leave Link  103 at Mon Jun 20 17:16:54 2022, MaxMem=  1342177280 cpu:               0.1 elap:               0.0
 (Enter /gpfs1/apps/software/Gaussian16/AVX/g16/l9999.exe)

 ----------------------------------------------------------------------

 Electric dipole moment (input orientation):
 (Debye = 10**-18 statcoulomb cm , SI units = C m)
                  (au)            (Debye)         (10**-30 SI)
   Tot        0.000000D+00      0.000000D+00      0.000000D+00
   x          0.000000D+00      0.000000D+00      0.000000D+00
   y          0.000000D+00      0.000000D+00      0.000000D+00
   z          0.000000D+00      0.000000D+00      0.000000D+00

 Dipole polarizability, Alpha (input orientation).
 (esu units = cm**3 , SI units = C**2 m**2 J**-1)
 Alpha(0;0):
               (au)            (10**-24 esu)      (10**-40 SI)
   iso        0.612484D+02      0.907608D+01      0.100985D+02
   aniso      0.578251D+02      0.856880D+01      0.953407D+01
   xx         0.851011D+02      0.126107D+02      0.140313D+02
   yx        -0.146704D+01     -0.217393D+00     -0.241882D+00
   yy         0.755023D+02      0.111883D+02      0.124486D+02
   zx         0.300178D+00      0.444817D-01      0.494926D-01
   zy         0.470016D+00      0.696492D-01      0.774951D-01
   zz         0.231418D+02      0.342926D+01      0.381557D+01

 ----------------------------------------------------------------------

 Dipole orientation:
     6          2.70927644         -0.31653893          0.12270009
     6          1.16801383         -0.45658558          2.34834206
     6         -1.40975232         -0.15606973          2.24226925
     6         -2.68913779          0.31377741         -0.10405439
     6         -1.14786974          0.45390998         -2.32967640
     6          1.42987107          0.15310986         -2.22364114
     1          4.74716577         -0.55430036          0.20844508
     1          2.06202112         -0.81109343          4.17596569
     1         -2.50768651         -0.27829995          3.98688525
     1         -4.72699921          0.55181232         -0.18973252
     1         -2.04185762          0.80843875         -4.15730481
     1          2.52774701          0.27498220         -3.96831913

 Electric dipole moment (dipole orientation):
 (Debye = 10**-18 statcoulomb cm , SI units = C m)
                  (au)            (Debye)         (10**-30 SI)
   Tot        0.000000D+00      0.000000D+00      0.000000D+00
   x          0.000000D+00      0.000000D+00      0.000000D+00
   y          0.000000D+00      0.000000D+00      0.000000D+00
   z          0.000000D+00      0.000000D+00      0.000000D+00

 Dipole polarizability, Alpha (dipole orientation).
 (esu units = cm**3 , SI units = C**2 m**2 J**-1)
 Alpha(0;0):
               (au)            (10**-24 esu)      (10**-40 SI)
   iso        0.612484D+02      0.907608D+01      0.100985D+02
   aniso      0.578251D+02      0.856880D+01      0.953407D+01
   xx         0.845559D+02      0.125299D+02      0.139414D+02
   yx        -0.674828D+01     -0.999992D+00     -0.111264D+01
   yy         0.248767D+02      0.368635D+01      0.410161D+01
   zx        -0.445823D+00     -0.660641D-01     -0.735063D-01
   zy        -0.710186D+01     -0.105239D+01     -0.117094D+01
   zz         0.743126D+02      0.110120D+02      0.122525D+02

 ----------------------------------------------------------------------
 Unable to Open any file for archive entry.
 1\1\GINC-KENNEDY30\Freq\UPBE1PBE\6-31G(d,p)\C6H6(1-,2)\OSL\20-Jun-2022
 \0\\#P Geom=AllCheck Guess=TCheck SCRF=Check GenChk UPBE1PBE/6-31G(d,p
 ) Freq\\Benzene_Optimisation_Frequencies_PBE1PBE__GD3BJ__Gas_Phase_6_3
 1G_d_p_\\-1,2\C,1.4265986702,-0.2291669101,0.0056643485\C,0.4942027955
 ,-1.3192299985,-0.0089634613\C,-0.8637528973,-1.1067994726,-0.01397304
 \C,-1.4170359938,0.2181871956,-0.0046339472\C,-0.4846429703,1.30824593
 ,0.010040336\C,0.8733165977,1.0958153348,0.0148976369\H,2.500046175,-0
 .3981046489,0.0096564742\H,0.8709239835,-2.3450880108,-0.0164038493\H,
 -1.5363181777,-1.9679570654,-0.0253252288\H,-2.4904872242,0.387108783,
 -0.0084772833\H,-0.8613548164,2.3341069594,0.0174924724\H,1.5458738577
 ,1.9569819035,0.0260555419\\Version=ES64L-G16RevC.01\State=2-A\HF=-231
 .9080062\S2=0.76145\S2-1=0.\S2A=0.750043\RMSD=7.869e-10\RMSF=5.834e-05
 \ZeroPoint=0.0902967\Thermal=0.0955865\ETot=-231.8124197\HTot=-231.811
 4756\GTot=-231.8466989\Dipole=-0.0000006,-0.0000055,0.0000007\DipoleDe
 riv=-0.337349,-0.0307331,0.0003728,-0.0309145,-0.5024867,-0.0007012,0.
 0005496,-0.0005805,-0.4610613,0.1909504,0.2912166,0.0046026,0.2069288,
 0.1788921,0.0044587,0.0037269,0.0048596,-0.185477,0.0235874,-0.2432082
 ,-0.0010743,-0.1587156,0.3158252,0.0037548,-0.0003297,0.0034258,-0.191
 788,-0.3373537,-0.0307305,0.0003456,-0.0309635,-0.5024792,-0.0003715,0
 .0002688,-0.0005059,-0.4610591,0.1909657,0.2912172,0.0045097,0.2069636
 ,0.1788887,0.00428,0.0038195,0.0047446,-0.1854808,0.0235924,-0.2432097
 ,-0.001188,-0.1587517,0.3158363,0.0038989,-0.0004247,0.0033696,-0.1917
 889,-0.2827522,0.0444559,-0.0018097,0.0447676,-0.0077154,-0.001209,-0.
 0019049,-0.0011785,0.150262,-0.0018044,0.1042197,0.0004652,0.1156068,-
 0.2876847,-0.0028821,0.000592,-0.0029726,0.0934898,-0.0926411,-0.16594
 95,-0.0024796,-0.1776426,-0.1968355,-0.003578,-0.0025998,-0.0035266,0.
 0945746,-0.2827556,0.0444547,-0.0017723,0.04476,-0.0077138,-0.0012175,
 -0.0017321,-0.0012417,0.1502621,-0.0018015,0.1042154,0.00047,0.1156053
 ,-0.2876864,-0.0028986,0.0005605,-0.0029226,0.0934904,-0.0926382,-0.16
 59484,-0.0024421,-0.1776442,-0.1968405,-0.0035345,-0.0025259,-0.003471
 1,0.0945762\Polar=85.1010807,-1.4670399,75.5022869,0.3001777,0.4700158
 ,23.1418131\Quadrupole=-0.9442171,0.7140442,0.2301729,0.2519373,-0.003
 5457,0.0056704\PG=C01 [X(C6H6)]\NImag=2\\0.68020233,-0.05495113,0.3532
 1861,0.00286574,0.00273073,0.02191473,-0.17580228,0.00183780,-0.000738
 14,0.70076578,-0.08351712,-0.07155666,-0.00082609,-0.09428720,0.564301
 44,-0.00151413,-0.00040329,-0.02740219,0.00223948,0.00381549,0.0938293
 9,-0.02588294,-0.02127889,-0.00039744,-0.42449314,0.04879190,-0.001474
 36,0.74490969,-0.06788533,-0.13657418,-0.00170597,0.09317371,-0.003561
 98,0.00087116,0.03073079,0.52540933,-0.00082128,-0.00148512,0.01367568
 ,-0.00107013,0.00066406,-0.04859682,0.00361710,0.00412796,0.09234172,-
 0.00810472,0.03782546,0.00038099,-0.01342541,0.02286198,0.00007461,-0.
 14114939,0.10921021,0.00042117,0.68020508,0.03782442,0.20557988,0.0021
 9474,-0.02951059,-0.15221957,-0.00164366,0.02973121,-0.10764885,-0.000
 58746,-0.05493861,0.35321391,0.00038224,0.00221348,-0.01518182,-0.0004
 0953,-0.00139964,0.01340472,-0.00030279,-0.00018701,-0.02696981,0.0028
 1120,0.00275283,0.02191478,-0.01342522,-0.02951106,-0.00040097,-0.0155
 1207,0.03396168,0.00025285,0.04790648,-0.07296080,-0.00042767,-0.17580
 575,0.00183293,-0.00073177,0.70075949,0.02286270,-0.15222023,-0.001390
 46,0.03396160,0.08340540,0.00097071,0.00829031,-0.13385483,-0.00118896
 ,-0.08352108,-0.07156162,-0.00082381,-0.09427946,0.56430832,0.00007077
 ,-0.00167478,0.01340471,0.00026189,0.00098805,-0.00518613,0.00031651,-
 0.00160452,0.00051453,-0.00151023,-0.00038156,-0.02740053,0.00218404,0
 .00380932,0.09382785,-0.14115063,0.02973507,-0.00031204,0.04790657,0.0
 0829043,0.00031411,-0.02794885,0.00813818,-0.00004023,-0.02588301,-0.0
 2127861,-0.00039142,-0.42448490,0.04879019,-0.00143969,0.74489993,0.10
 921342,-0.10765678,-0.00017972,-0.07296095,-0.13385523,-0.00158426,0.0
 0813840,0.08881921,0.00090585,-0.06788634,-0.13657492,-0.00171957,0.09
 317265,-0.00356119,0.00089229,0.03072843,0.52542058,0.00041470,-0.0005
 8496,-0.02696837,-0.00042337,-0.00117761,0.00051486,-0.00003923,0.0008
 9569,-0.00542082,-0.00081720,-0.00147101,0.01367594,-0.00103431,0.0006
 5156,-0.04859716,0.00354793,0.00408169,0.09233944,-0.32954986,0.042423
 27,-0.00134589,-0.01455870,0.00968284,0.00004780,-0.00024416,-0.004564
 61,-0.00004422,0.00129286,0.00061128,0.00000783,0.00048368,0.00181033,
 0.00001786,-0.00821453,-0.00353024,-0.00003959,0.35135219,0.04232407,-
 0.06724722,-0.00046246,-0.02275114,0.01118473,0.00004692,-0.00058308,-
 0.00838955,-0.00008087,0.00078142,0.00562931,0.00004790,-0.00252142,-0
 .00918776,-0.00009645,0.02918894,0.00493561,0.00025712,-0.04685733,0.0
 6097995,-0.00135083,-0.00045183,0.00773747,-0.00024718,0.00020738,-0.0
 0689291,-0.00000716,-0.00009642,0.00010816,0.00000550,0.00003834,0.000
 84824,-0.00001667,-0.00006776,0.00005562,0.00026079,0.00008277,-0.0068
 7702,0.00136892,0.00029365,0.00209039,0.01132964,-0.01452067,-0.000074
 86,-0.08843408,0.07978643,0.00039994,-0.00739451,0.03565154,0.00028639
 ,-0.00472973,-0.00504094,-0.00010131,-0.00058258,0.00083315,0.00000349
 ,-0.00188999,-0.00451474,-0.00007083,0.00090212,0.00092522,0.00001629,
 0.09006228,0.01330297,-0.02039132,-0.00011870,0.08551210,-0.28704243,-
 0.00196104,-0.00102385,-0.00708971,-0.00007522,0.00200524,0.00537265,0
 .00000404,-0.00184077,-0.00118385,-0.00002260,-0.00541420,-0.00017848,
 -0.00006598,-0.00094092,0.00098215,0.00001124,-0.09326648,0.31010670,0
 .00018000,-0.00025035,0.00003236,0.00044957,-0.00199813,-0.02420804,-0
 .00005030,0.00011927,0.00052453,-0.00003689,-0.00004060,0.00606407,-0.
 00001958,-0.00000502,0.00025119,-0.00007766,-0.00006642,0.00399449,0.0
 0000009,0.00002031,-0.00072020,-0.00049167,0.00217591,0.01944035,-0.00
 280019,0.00756569,0.00002313,-0.01760678,-0.03224287,-0.00038627,-0.15
 511015,-0.12247526,-0.00179856,0.00862073,0.00530442,0.00009311,0.0012
 5893,0.00402812,0.00002377,-0.00048821,-0.00097327,-0.00001262,-0.0013
 4117,-0.00144037,-0.00003323,0.00084688,0.00079566,0.00004154,0.165140
 19,0.00074491,0.00371015,-0.00001730,0.00427162,0.00284497,0.00004436,
 -0.12807009,-0.22034833,-0.00246159,-0.02270558,-0.01786413,-0.0002782
 1,0.00511515,-0.00312920,-0.00003878,0.00149824,-0.00151797,-0.0000087
 5,0.00007524,0.00012067,-0.00002269,-0.00052152,0.00173328,0.00006682,
 0.14006337,0.23525904,-0.00004012,0.00001317,0.00597602,-0.00005016,-0
 .00013868,0.00037563,-0.00185042,-0.00243678,-0.02356940,-0.00016221,-
 0.00013116,-0.00010097,0.00003260,-0.00004619,0.00385480,0.00000981,-0
 .00001821,0.00027431,-0.00001939,-0.00003026,0.00264012,0.00002971,0.0
 0007284,-0.00584922,0.00203378,0.00270079,0.01910483,0.00129278,0.0006
 1099,0.00000780,0.00048374,0.00181061,0.00001920,-0.00821486,-0.003530
 41,-0.00003878,-0.32955010,0.04241948,-0.00130766,-0.01455839,0.009682
 62,0.00005032,-0.00024412,-0.00456438,-0.00004293,-0.00022546,0.000107
 03,0.00000457,-0.00080371,0.00022086,-0.00001522,0.00090677,0.00096223
 ,0.00001638,0.35135242,0.00078134,0.00562920,0.00004719,-0.00252130,-0
 .00918766,-0.00009739,0.02918920,0.00493531,0.00025508,0.04231953,-0.0
 6724575,-0.00047462,-0.02275098,0.01118474,0.00005133,-0.00058305,-0.0
 0838950,-0.00008014,0.00010703,0.00045281,0.00001302,0.00173863,-0.000
 42003,-0.00001830,-0.00091193,0.00095930,0.00001005,-0.04685334,0.0609
 7877,0.00001247,0.00005528,0.00084842,-0.00002441,-0.00008192,0.000055
 50,0.00025897,0.00009650,-0.00687661,-0.00130861,-0.00048374,0.0077372
 8,-0.00024404,0.00022053,-0.00689303,-0.00000667,-0.00010562,0.0001080
 5,0.00000454,0.00001340,-0.00093612,-0.00000169,-0.00002551,0.00256739
 ,-0.00000073,0.00001964,-0.00062115,0.00132636,0.00030381,0.00209033,-
 0.00472979,-0.00504101,-0.00010013,-0.00058255,0.00083318,0.00000329,-
 0.00188998,-0.00451480,-0.00007098,0.01132976,-0.01452058,-0.00007561,
 -0.08843264,0.07978456,0.00040484,-0.00739464,0.03565172,0.00028368,-0
 .00080370,0.00173862,-0.00000059,0.00024465,0.00013794,0.00000909,0.00
 044904,-0.00120856,-0.00000495,0.00090209,0.00092525,0.00001701,0.0900
 6089,0.00200527,0.00537256,0.00000367,-0.00184078,-0.00118383,-0.00002
 218,-0.00541415,-0.00017847,-0.00006495,0.01330291,-0.02039108,-0.0001
 1896,0.08551052,-0.28704455,-0.00196614,-0.00102385,-0.00708981,-0.000
 07398,0.00022086,-0.00042002,-0.00002672,0.00013795,-0.00014956,0.0000
 1117,0.00051146,-0.00173941,-0.00000581,-0.00094093,0.00098215,0.00001
 018,-0.09326489,0.31010871,-0.00003574,-0.00002279,0.00606413,-0.00002
 261,-0.00001273,0.00025107,-0.00008052,-0.00005561,0.00399463,0.000176
 80,-0.00026860,0.00003205,0.00045929,-0.00198721,-0.02420748,-0.000048
 29,0.00010268,0.00052436,-0.00001483,-0.00001874,0.00256744,0.00000910
 ,0.00001131,-0.00130598,0.00001084,-0.00001487,-0.00079096,-0.00000060
 ,0.00002008,-0.00072023,-0.00049420,0.00218025,0.01944017,0.00862088,0
 .00530448,0.00009180,0.00125892,0.00402812,0.00002350,-0.00048820,-0.0
 0097324,-0.00001283,-0.00280031,0.00756560,0.00002572,-0.01760703,-0.0
 3224303,-0.00038355,-0.15510763,-0.12247470,-0.00176623,0.00090673,-0.
 00091197,-0.00000040,0.00044904,0.00051147,0.00001102,0.00012396,-0.00
 022501,0.00000498,-0.00134116,-0.00144038,-0.00003321,0.00084686,0.000
 79563,0.00004075,0.16513795,-0.02270551,-0.01786402,-0.00027565,0.0051
 1514,-0.00312917,-0.00003682,0.00149825,-0.00151797,-0.00000879,0.0007
 4486,0.00371015,-0.00001643,0.00427156,0.00284477,0.00004384,-0.128069
 77,-0.22035151,-0.00242364,0.00096225,0.00095930,0.00001902,-0.0012085
 6,-0.00173941,-0.00001467,-0.00022502,-0.00002838,0.00001022,0.0000752
 3,0.00012067,-0.00002255,-0.00052145,0.00173332,0.00006622,0.14006302,
 0.23526225,-0.00016382,-0.00013954,-0.00010115,0.00003459,-0.00004020,
 0.00385493,0.00000963,-0.00002428,0.00027421,-0.00003513,0.00002188,0.
 00597603,-0.00005377,-0.00014271,0.00037563,-0.00181663,-0.00239149,-0
 .02356807,0.00001686,0.00000949,-0.00062118,-0.00000455,-0.00000630,-0
 .00079096,0.00000524,0.00001059,-0.00129401,-0.00001944,-0.00003013,0.
 00264017,0.00002855,0.00007345,-0.00584919,0.00199845,0.00265924,0.019
 10360\\0.00007175,0.00003788,0.00000123,-0.00013251,-0.00013566,0.0000
 0335,0.00007449,-0.00009896,-0.00000548,-0.00007042,-0.00003260,0.,0.0
 0012876,0.00013431,0.00000706,-0.00007152,0.00009552,-0.00000434,0.000
 00824,-0.00000199,0.00000014,0.00004348,0.00002463,0.00000205,-0.00003
 413,0.00003404,-0.00000243,-0.00000883,0.00000078,-0.00000002,-0.00004
 279,-0.00002456,0.00000123,0.00003346,-0.00003340,-0.00000279\\\@
 The archive entry for this job was punched.


 EVERYTHING'S GOT A MORAL, IF ONLY YOU CAN FIND IT.

                                    -- LEWIS CARROL, ALICE IN WONDERLAND
 Job cpu time:       0 days  0 hours  8 minutes 47.5 seconds.
 Elapsed time:       0 days  0 hours  2 minutes 13.1 seconds.
 File lengths (MBytes):  RWF=    109 Int=      0 D2E=      0 Chk=      4 Scr=      2
 Normal termination of Gaussian 16 at Mon Jun 20 17:16:54 2022.
