 Entering Gaussian System, Link 0=/Users/chemlab/Desktop/g16/g16
 Input=/Users/chemlab/Library/CloudStorage/GoogleDrive-kgagnon777@gmail.com/My Drive/Data/Silicon/scale_factors/co_pbe1pbe_631ppGss.gjf
 Output=/Users/chemlab/Library/CloudStorage/GoogleDrive-kgagnon777@gmail.com/My Drive/Data/Silicon/scale_factors/co_pbe1pbe_631ppGss.log
 Initial command:
 /Users/chemlab/Desktop/g16/l1.exe "/Users/chemlab/GaussianScratch/Gau-8115.inp" -scrdir="/Users/chemlab/GaussianScratch/"
 Entering Link 1 = /Users/chemlab/Desktop/g16/l1.exe PID=      8116.
  
 Copyright (c) 1988-2021, Gaussian, Inc.  All Rights Reserved.
  
 This is part of the Gaussian(R) 16 program.  It is based on
 the Gaussian(R) 09 system (copyright 2009, Gaussian, Inc.),
 the Gaussian(R) 03 system (copyright 2003, Gaussian, Inc.),
 the Gaussian(R) 98 system (copyright 1998, Gaussian, Inc.),
 the Gaussian(R) 94 system (copyright 1995, Gaussian, Inc.),
 the Gaussian 92(TM) system (copyright 1992, Gaussian, Inc.),
 the Gaussian 90(TM) system (copyright 1990, Gaussian, Inc.),
 the Gaussian 88(TM) system (copyright 1988, Gaussian, Inc.),
 the Gaussian 86(TM) system (copyright 1986, Carnegie Mellon
 University), and the Gaussian 82(TM) system (copyright 1983,
 Carnegie Mellon University). Gaussian is a federally registered
 trademark of Gaussian, Inc.
  
 This software contains proprietary and confidential information,
 including trade secrets, belonging to Gaussian, Inc.
  
 This software is provided under written license and may be
 used, copied, transmitted, or stored only in accord with that
 written license.
  
 The following legend is applicable only to US Government
 contracts under FAR:
  
                    RESTRICTED RIGHTS LEGEND
  
 Use, reproduction and disclosure by the US Government is
 subject to restrictions as set forth in subparagraphs (a)
 and (c) of the Commercial Computer Software - Restricted
 Rights clause in FAR 52.227-19.
  
 Gaussian, Inc.
 340 Quinnipiac St., Bldg. 40, Wallingford CT 06492
  
  
 ---------------------------------------------------------------
 Warning -- This program may not be used in any manner that
 competes with the business of Gaussian, Inc. or will provide
 assistance to any competitor of Gaussian, Inc.  The licensee
 of this program is prohibited from giving any competitor of
 Gaussian, Inc. access to this program.  By using this program,
 the user acknowledges that Gaussian, Inc. is engaged in the
 business of creating and licensing software in the field of
 computational chemistry and represents and warrants to the
 licensee that it is not a competitor of Gaussian, Inc. and that
 it will not use this program in any manner prohibited above.
 ---------------------------------------------------------------
  

 Cite this work as:
 Gaussian 16, Revision C.02,
 M. J. Frisch, G. W. Trucks, H. B. Schlegel, G. E. Scuseria, 
 M. A. Robb, J. R. Cheeseman, G. Scalmani, V. Barone, 
 G. A. Petersson, H. Nakatsuji, X. Li, M. Caricato, A. V. Marenich, 
 J. Bloino, B. G. Janesko, R. Gomperts, B. Mennucci, H. P. Hratchian, 
 J. V. Ortiz, A. F. Izmaylov, J. L. Sonnenberg, D. Williams-Young, 
 F. Ding, F. Lipparini, F. Egidi, J. Goings, B. Peng, A. Petrone, 
 T. Henderson, D. Ranasinghe, V. G. Zakrzewski, J. Gao, N. Rega, 
 G. Zheng, W. Liang, M. Hada, M. Ehara, K. Toyota, R. Fukuda, 
 J. Hasegawa, M. Ishida, T. Nakajima, Y. Honda, O. Kitao, H. Nakai, 
 T. Vreven, K. Throssell, J. A. Montgomery, Jr., J. E. Peralta, 
 F. Ogliaro, M. J. Bearpark, J. J. Heyd, E. N. Brothers, K. N. Kudin, 
 V. N. Staroverov, T. A. Keith, R. Kobayashi, J. Normand, 
 K. Raghavachari, A. P. Rendell, J. C. Burant, S. S. Iyengar, 
 J. Tomasi, M. Cossi, J. M. Millam, M. Klene, C. Adamo, R. Cammi, 
 J. W. Ochterski, R. L. Martin, K. Morokuma, O. Farkas, 
 J. B. Foresman, and D. J. Fox, Gaussian, Inc., Wallingford CT, 2019.
 
 *********************************************
 Gaussian 16:  Apple M1-G16RevC.02  7-Dec-2021
                   6-Mar-2024 
 *********************************************
 %chk=co_pbe1pbe_631ppGss.chk
 %nprocs=4
 Will use up to    4 processors via shared memory.
 %mem=3200MB
 -------------------------------
 # opt freq 6-31++g(d,p) pbe1pbe
 -------------------------------
 1/18=20,19=15,26=3,38=1/1,3;
 2/9=110,12=2,17=6,18=5,40=1/2;
 3/5=1,6=6,7=1111,11=2,25=1,30=1,71=1,74=-13/1,2,3;
 4//1;
 5/5=2,38=5/2;
 6/7=2,8=2,9=2,10=2,28=1/1;
 7//1,2,3,16;
 1/18=20,19=15,26=3/3(2);
 2/9=110/2;
 99//99;
 2/9=110/2;
 3/5=1,6=6,7=1111,11=2,25=1,30=1,71=1,74=-13/1,2,3;
 4/5=5,16=3,69=1/1;
 5/5=2,38=5/2;
 7//1,2,3,16;
 1/18=20,19=15,26=3/3(-5);
 2/9=110/2;
 6/7=2,8=2,9=2,10=2,19=2,28=1/1;
 99/9=1/99;
 -------------------
 hf_pbe1pbe_631ppGss
 -------------------
 Symbolic Z-matrix:
 Charge =  0 Multiplicity = 1
 C                     0.        0.       -0.63737 
 O                     0.        0.        0.47803 
 

 GradGradGradGradGradGradGradGradGradGradGradGradGradGradGradGradGradGrad
 Berny optimization.
 Initialization pass.
                           ----------------------------
                           !    Initial Parameters    !
                           ! (Angstroms and Degrees)  !
 --------------------------                            --------------------------
 ! Name  Definition              Value          Derivative Info.                !
 --------------------------------------------------------------------------------
 ! R1    R(1,2)                  1.1154         estimate D2E/DX2                !
 --------------------------------------------------------------------------------
 Trust Radius=3.00D-01 FncErr=1.00D-07 GrdErr=1.00D-06 EigMax=2.50D+02 EigMin=1.00D-04
 Number of steps in this run=     20 maximum allowed number of steps=    100.
 GradGradGradGradGradGradGradGradGradGradGradGradGradGradGradGradGradGrad

                          Input orientation:                          
 ---------------------------------------------------------------------
 Center     Atomic      Atomic             Coordinates (Angstroms)
 Number     Number       Type             X           Y           Z
 ---------------------------------------------------------------------
      1          6           0        0.000000    0.000000   -0.637371
      2          8           0        0.000000    0.000000    0.478029
 ---------------------------------------------------------------------
 Stoichiometry    CO
 Framework group  C*V[C*(CO)]
 Deg. of freedom     1
 Full point group                 C*V     NOp   4
 Largest Abelian subgroup         C2V     NOp   4
 Largest concise Abelian subgroup C1      NOp   1
                         Standard orientation:                         
 ---------------------------------------------------------------------
 Center     Atomic      Atomic             Coordinates (Angstroms)
 Number     Number       Type             X           Y           Z
 ---------------------------------------------------------------------
      1          6           0        0.000000    0.000000   -0.637371
      2          8           0        0.000000    0.000000    0.478029
 ---------------------------------------------------------------------
 Rotational constants (GHZ):           0.0000000          59.2477544          59.2477544
 Standard basis: 6-31++G(d,p) (6D, 7F)
 There are    20 symmetry adapted cartesian basis functions of A1  symmetry.
 There are     2 symmetry adapted cartesian basis functions of A2  symmetry.
 There are     8 symmetry adapted cartesian basis functions of B1  symmetry.
 There are     8 symmetry adapted cartesian basis functions of B2  symmetry.
 There are    20 symmetry adapted basis functions of A1  symmetry.
 There are     2 symmetry adapted basis functions of A2  symmetry.
 There are     8 symmetry adapted basis functions of B1  symmetry.
 There are     8 symmetry adapted basis functions of B2  symmetry.
    38 basis functions,    64 primitive gaussians,    38 cartesian basis functions
     7 alpha electrons        7 beta electrons
       nuclear repulsion energy        22.7725534554 Hartrees.
 NAtoms=    2 NActive=    2 NUniq=    2 SFac= 1.00D+00 NAtFMM=   60 NAOKFM=F Big=F
 Integral buffers will be    131072 words long.
 Raffenetti 2 integral format.
 Two-electron integral symmetry is turned on.
 One-electron integrals computed using PRISM.
 NBasis=    38 RedAO= T EigKep=  4.88D-03  NBF=    20     2     8     8
 NBsUse=    38 1.00D-06 EigRej= -1.00D+00 NBFU=    20     2     8     8
 ExpMin= 4.38D-02 ExpMax= 5.48D+03 ExpMxC= 8.25D+02 IAcc=3 IRadAn=         5 AccDes= 0.00D+00
 Harris functional with IExCor= 1009 and IRadAn=       5 diagonalized for initial guess.
 HarFok:  IExCor= 1009 AccDes= 0.00D+00 IRadAn=         5 IDoV= 1 UseB2=F ITyADJ=14
 ICtDFT=  3500011 ScaDFX=  1.000000  1.000000  1.000000  1.000000
 FoFCou: FMM=F IPFlag=           0 FMFlag=      100000 FMFlg1=           0
         NFxFlg=           0 DoJE=T BraDBF=F KetDBF=T FulRan=T
         wScrn=  0.000000 ICntrl=       500 IOpCl=  0 I1Cent=   200000004 NGrid=           0
         NMat0=    1 NMatS0=      1 NMatT0=    0 NMatD0=    1 NMtDS0=    0 NMtDT0=    0
 Petite list used in FoFCou.
 Initial guess orbital symmetries:
       Occupied  (SG) (SG) (SG) (SG) (PI) (PI) (SG)
       Virtual   (PI) (PI) (SG) (SG) (PI) (PI) (SG) (PI) (PI) (SG)
                 (SG) (PI) (PI) (SG) (SG) (PI) (PI) (SG) (DLTA)
                 (DLTA) (SG) (PI) (PI) (DLTA) (DLTA) (SG) (PI)
                 (PI) (SG) (SG) (SG)
 The electronic state of the initial guess is 1-SG.
 Keep R1 ints in memory in symmetry-blocked form, NReq=3734605.
 Requested convergence on RMS density matrix=1.00D-08 within 128 cycles.
 Requested convergence on MAX density matrix=1.00D-06.
 Requested convergence on             energy=1.00D-06.
 No special actions if energy rises.
 SCF Done:  E(RPBE1PBE) =  -113.187004782     A.U. after    8 cycles
            NFock=  8  Conv=0.68D-08     -V/T= 2.0074

 **********************************************************************

            Population analysis using the SCF Density.

 **********************************************************************

 Orbital symmetries:
       Occupied  (SG) (SG) (SG) (SG) (PI) (PI) (SG)
       Virtual   (PI) (PI) (SG) (SG) (PI) (PI) (SG) (PI) (PI) (SG)
                 (SG) (PI) (PI) (SG) (SG) (PI) (PI) (SG) (DLTA)
                 (DLTA) (SG) (PI) (PI) (DLTA) (DLTA) (SG) (PI)
                 (PI) (SG) (SG) (SG)
 The electronic state is 1-SG.
 Alpha  occ. eigenvalues --  -19.34598 -10.35880  -1.21210  -0.59979  -0.50119
 Alpha  occ. eigenvalues --   -0.50119  -0.39343
 Alpha virt. eigenvalues --   -0.02356  -0.02356   0.03949   0.07046   0.08279
 Alpha virt. eigenvalues --    0.08279   0.19487   0.22365   0.22365   0.27499
 Alpha virt. eigenvalues --    0.44463   0.65788   0.65788   0.78419   1.05420
 Alpha virt. eigenvalues --    1.16052   1.16052   1.17968   1.46570   1.46570
 Alpha virt. eigenvalues --    1.49862   1.55674   1.55674   1.95292   1.95292
 Alpha virt. eigenvalues --    2.52712   2.63870   2.63870   3.10396   4.04011
 Alpha virt. eigenvalues --    4.19154
          Condensed to atoms (all electrons):
               1          2
     1  C    5.334190   0.542893
     2  O    0.542893   7.580023
 Mulliken charges:
               1
     1  C    0.122916
     2  O   -0.122916
 Sum of Mulliken charges =   0.00000
 Mulliken charges with hydrogens summed into heavy atoms:
               1
     1  C    0.122916
     2  O   -0.122916
 Electronic spatial extent (au):  <R**2>=             39.6389
 Charge=              0.0000 electrons
 Dipole moment (field-independent basis, Debye):
    X=              0.0000    Y=              0.0000    Z=              0.1232  Tot=              0.1232
 Quadrupole moment (field-independent basis, Debye-Ang):
   XX=            -10.2166   YY=            -10.2166   ZZ=            -12.3941
   XY=              0.0000   XZ=              0.0000   YZ=              0.0000
 Traceless Quadrupole moment (field-independent basis, Debye-Ang):
   XX=              0.7258   YY=              0.7258   ZZ=             -1.4517
   XY=              0.0000   XZ=              0.0000   YZ=              0.0000
 Octapole moment (field-independent basis, Debye-Ang**2):
  XXX=              0.0000  YYY=              0.0000  ZZZ=              6.4026  XYY=              0.0000
  XXY=              0.0000  XXZ=              1.2159  XZZ=              0.0000  YZZ=              0.0000
  YYZ=              1.2159  XYZ=              0.0000
 Hexadecapole moment (field-independent basis, Debye-Ang**3):
 XXXX=             -9.4572 YYYY=             -9.4572 ZZZZ=            -37.3877 XXXY=              0.0000
 XXXZ=              0.0000 YYYX=              0.0000 YYYZ=              0.0000 ZZZX=              0.0000
 ZZZY=              0.0000 XXYY=             -3.1524 XXZZ=             -7.2670 YYZZ=             -7.2670
 XXYZ=              0.0000 YYXZ=              0.0000 ZZXY=              0.0000
 N-N= 2.277255345541D+01 E-N=-3.109949833129D+02  KE= 1.123521269853D+02
 Symmetry A1   KE= 1.042358739061D+02
 Symmetry A2   KE=-7.609923769040D-51
 Symmetry B1   KE= 4.058126539594D+00
 Symmetry B2   KE= 4.058126539594D+00
 Calling FoFJK, ICntrl=      2127 FMM=F ISym2X=1 I1Cent= 0 IOpClX= 0 NMat=1 NMatS=1 NMatT=0.
 ***** Axes restored to original set *****
 -------------------------------------------------------------------
 Center     Atomic                   Forces (Hartrees/Bohr)
 Number     Number              X              Y              Z
 -------------------------------------------------------------------
      1        6          -0.000000000   -0.000000000   -0.049811879
      2        8          -0.000000000   -0.000000000    0.049811879
 -------------------------------------------------------------------
 Cartesian Forces:  Max     0.049811879 RMS     0.028758902

 GradGradGradGradGradGradGradGradGradGradGradGradGradGradGradGradGradGrad
 Berny optimization.
 FormGI is forming the generalized inverse of G from B-inverse, IUseBI=4.
 Internal  Forces:  Max     0.049811879 RMS     0.049811879
 Search for a local minimum.
 Step number   1 out of a maximum of   20
 All quantities printed in internal units (Hartrees-Bohrs-Radians)
 Mixed Optimization -- RFO/linear search
 Second derivative matrix not updated -- first step.
 The second derivative matrix:
                          R1
           R1           1.62060
 ITU=  0
     Eigenvalues ---    1.62060
 RFO step:  Lambda=-1.52960698D-03 EMin= 1.62060164D+00
 Linear search not attempted -- first point.
 Iteration  1 RMS(Cart)=  0.02171361 RMS(Int)=  0.00000000
 Iteration  2 RMS(Cart)=  0.00000000 RMS(Int)=  0.00000000
 ClnCor:  largest displacement from symmetrization is 0.00D+00 for atom     0.
 Variable       Old X    -DE/DX   Delta X   Delta X   Delta X     New X
                                 (Linear)    (Quad)   (Total)
    R1        2.10780   0.04981   0.00000   0.03071   0.03071   2.13851
         Item               Value     Threshold  Converged?
 Maximum Force            0.049812     0.000450     NO 
 RMS     Force            0.049812     0.000300     NO 
 Maximum Displacement     0.015354     0.001800     NO 
 RMS     Displacement     0.021714     0.001200     NO 
 Predicted change in Energy=-7.655247D-04
 GradGradGradGradGradGradGradGradGradGradGradGradGradGradGradGradGradGrad

                          Input orientation:                          
 ---------------------------------------------------------------------
 Center     Atomic      Atomic             Coordinates (Angstroms)
 Number     Number       Type             X           Y           Z
 ---------------------------------------------------------------------
      1          6           0        0.000000    0.000000   -0.645496
      2          8           0        0.000000    0.000000    0.486153
 ---------------------------------------------------------------------
 Stoichiometry    CO
 Framework group  C*V[C*(CO)]
 Deg. of freedom     1
 Full point group                 C*V     NOp   4
 Largest Abelian subgroup         C2V     NOp   4
 Largest concise Abelian subgroup C1      NOp   1
                         Standard orientation:                         
 ---------------------------------------------------------------------
 Center     Atomic      Atomic             Coordinates (Angstroms)
 Number     Number       Type             X           Y           Z
 ---------------------------------------------------------------------
      1          6           0        0.000000    0.000000   -0.646657
      2          8           0        0.000000    0.000000    0.484993
 ---------------------------------------------------------------------
 Rotational constants (GHZ):           0.0000000          57.5584475          57.5584475
 Standard basis: 6-31++G(d,p) (6D, 7F)
 There are    20 symmetry adapted cartesian basis functions of A1  symmetry.
 There are     2 symmetry adapted cartesian basis functions of A2  symmetry.
 There are     8 symmetry adapted cartesian basis functions of B1  symmetry.
 There are     8 symmetry adapted cartesian basis functions of B2  symmetry.
 There are    20 symmetry adapted basis functions of A1  symmetry.
 There are     2 symmetry adapted basis functions of A2  symmetry.
 There are     8 symmetry adapted basis functions of B1  symmetry.
 There are     8 symmetry adapted basis functions of B2  symmetry.
    38 basis functions,    64 primitive gaussians,    38 cartesian basis functions
     7 alpha electrons        7 beta electrons
       nuclear repulsion energy        22.4455534607 Hartrees.
 NAtoms=    2 NActive=    2 NUniq=    2 SFac= 1.00D+00 NAtFMM=   60 NAOKFM=F Big=F
 Integral buffers will be    131072 words long.
 Raffenetti 2 integral format.
 Two-electron integral symmetry is turned on.
 One-electron integrals computed using PRISM.
 NBasis=    38 RedAO= T EigKep=  5.13D-03  NBF=    20     2     8     8
 NBsUse=    38 1.00D-06 EigRej= -1.00D+00 NBFU=    20     2     8     8
 Initial guess from the checkpoint file:  "co_pbe1pbe_631ppGss.chk"
 B after Tr=     0.000000    0.000000   -0.000000
         Rot=    1.000000    0.000000    0.000000    0.000000 Ang=   0.00 deg.
 Initial guess orbital symmetries:
       Occupied  (SG) (SG) (SG) (SG) (PI) (PI) (SG)
       Virtual   (PI) (PI) (SG) (SG) (PI) (PI) (SG) (PI) (PI) (SG)
                 (SG) (PI) (PI) (SG) (SG) (PI) (PI) (SG) (DLTA)
                 (DLTA) (SG) (PI) (PI) (DLTA) (DLTA) (SG) (PI)
                 (PI) (SG) (SG) (SG)
 Keep R1 ints in memory in symmetry-blocked form, NReq=3734605.
 Requested convergence on RMS density matrix=1.00D-08 within 128 cycles.
 Requested convergence on MAX density matrix=1.00D-06.
 Requested convergence on             energy=1.00D-06.
 No special actions if energy rises.
 SCF Done:  E(RPBE1PBE) =  -113.187862239     A.U. after    8 cycles
            NFock=  8  Conv=0.61D-09     -V/T= 2.0082
 Calling FoFJK, ICntrl=      2127 FMM=F ISym2X=1 I1Cent= 0 IOpClX= 0 NMat=1 NMatS=1 NMatT=0.
 ***** Axes restored to original set *****
 -------------------------------------------------------------------
 Center     Atomic                   Forces (Hartrees/Bohr)
 Number     Number              X              Y              Z
 -------------------------------------------------------------------
      1        6          -0.000000000   -0.000000000   -0.006837561
      2        8          -0.000000000   -0.000000000    0.006837561
 -------------------------------------------------------------------
 Cartesian Forces:  Max     0.006837561 RMS     0.003947668

 GradGradGradGradGradGradGradGradGradGradGradGradGradGradGradGradGradGrad
 Berny optimization.
 Using GEDIIS/GDIIS optimizer.
 Internal  Forces:  Max     0.006837561 RMS     0.006837561
 Search for a local minimum.
 Step number   2 out of a maximum of   20
 All quantities printed in internal units (Hartrees-Bohrs-Radians)
 Mixed Optimization -- RFO/linear search
 Update second derivatives using D2CorX and points    1    2
 DE= -8.57D-04 DEPred=-7.66D-04 R= 1.12D+00
 TightC=F SS=  1.41D+00  RLast= 3.07D-02 DXNew= 5.0454D-01 9.2123D-02
 Trust test= 1.12D+00 RLast= 3.07D-02 DXMaxT set to 3.00D-01
 The second derivative matrix:
                          R1
           R1           1.39947
 ITU=  1  0
 Use linear search instead of GDIIS.
     Eigenvalues ---    1.39947
 RFO step:  Lambda= 0.00000000D+00 EMin= 1.39946505D+00
 Quartic linear search produced a step of  0.17013.
 Iteration  1 RMS(Cart)=  0.00369409 RMS(Int)=  0.00000000
 Iteration  2 RMS(Cart)=  0.00000000 RMS(Int)=  0.00000000
 ClnCor:  largest displacement from symmetrization is 0.00D+00 for atom     0.
 Variable       Old X    -DE/DX   Delta X   Delta X   Delta X     New X
                                 (Linear)    (Quad)   (Total)
    R1        2.13851   0.00684   0.00522   0.00000   0.00522   2.14373
         Item               Value     Threshold  Converged?
 Maximum Force            0.006838     0.000450     NO 
 RMS     Force            0.006838     0.000300     NO 
 Maximum Displacement     0.002612     0.001800     NO 
 RMS     Displacement     0.003694     0.001200     NO 
 Predicted change in Energy=-1.662349D-05
 GradGradGradGradGradGradGradGradGradGradGradGradGradGradGradGradGradGrad

                          Input orientation:                          
 ---------------------------------------------------------------------
 Center     Atomic      Atomic             Coordinates (Angstroms)
 Number     Number       Type             X           Y           Z
 ---------------------------------------------------------------------
      1          6           0        0.000000    0.000000   -0.646879
      2          8           0        0.000000    0.000000    0.487536
 ---------------------------------------------------------------------
 Stoichiometry    CO
 Framework group  C*V[C*(CO)]
 Deg. of freedom     1
 Full point group                 C*V     NOp   4
 Largest Abelian subgroup         C2V     NOp   4
 Largest concise Abelian subgroup C1      NOp   1
                         Standard orientation:                         
 ---------------------------------------------------------------------
 Center     Atomic      Atomic             Coordinates (Angstroms)
 Number     Number       Type             X           Y           Z
 ---------------------------------------------------------------------
      1          6           0        0.000000    0.000000   -0.648237
      2          8           0        0.000000    0.000000    0.486178
 ---------------------------------------------------------------------
 Rotational constants (GHZ):           0.0000000          57.2782518          57.2782518
 Standard basis: 6-31++G(d,p) (6D, 7F)
 There are    20 symmetry adapted cartesian basis functions of A1  symmetry.
 There are     2 symmetry adapted cartesian basis functions of A2  symmetry.
 There are     8 symmetry adapted cartesian basis functions of B1  symmetry.
 There are     8 symmetry adapted cartesian basis functions of B2  symmetry.
 There are    20 symmetry adapted basis functions of A1  symmetry.
 There are     2 symmetry adapted basis functions of A2  symmetry.
 There are     8 symmetry adapted basis functions of B1  symmetry.
 There are     8 symmetry adapted basis functions of B2  symmetry.
    38 basis functions,    64 primitive gaussians,    38 cartesian basis functions
     7 alpha electrons        7 beta electrons
       nuclear repulsion energy        22.3908541165 Hartrees.
 NAtoms=    2 NActive=    2 NUniq=    2 SFac= 1.00D+00 NAtFMM=   60 NAOKFM=F Big=F
 Integral buffers will be    131072 words long.
 Raffenetti 2 integral format.
 Two-electron integral symmetry is turned on.
 One-electron integrals computed using PRISM.
 NBasis=    38 RedAO= T EigKep=  5.17D-03  NBF=    20     2     8     8
 NBsUse=    38 1.00D-06 EigRej= -1.00D+00 NBFU=    20     2     8     8
 Initial guess from the checkpoint file:  "co_pbe1pbe_631ppGss.chk"
 B after Tr=     0.000000    0.000000    0.000000
         Rot=    1.000000    0.000000    0.000000    0.000000 Ang=   0.00 deg.
 Initial guess orbital symmetries:
       Occupied  (SG) (SG) (SG) (SG) (PI) (PI) (SG)
       Virtual   (PI) (PI) (SG) (SG) (PI) (PI) (SG) (PI) (PI) (SG)
                 (SG) (PI) (PI) (SG) (SG) (PI) (PI) (SG) (DLTA)
                 (DLTA) (SG) (PI) (PI) (DLTA) (DLTA) (SG) (PI)
                 (PI) (SG) (SG) (SG)
 Keep R1 ints in memory in symmetry-blocked form, NReq=3734605.
 Requested convergence on RMS density matrix=1.00D-08 within 128 cycles.
 Requested convergence on MAX density matrix=1.00D-06.
 Requested convergence on             energy=1.00D-06.
 No special actions if energy rises.
 SCF Done:  E(RPBE1PBE) =  -113.187880030     A.U. after    7 cycles
            NFock=  7  Conv=0.18D-08     -V/T= 2.0083
 Calling FoFJK, ICntrl=      2127 FMM=F ISym2X=1 I1Cent= 0 IOpClX= 0 NMat=1 NMatS=1 NMatT=0.
 ***** Axes restored to original set *****
 -------------------------------------------------------------------
 Center     Atomic                   Forces (Hartrees/Bohr)
 Number     Number              X              Y              Z
 -------------------------------------------------------------------
      1        6          -0.000000000   -0.000000000    0.000004334
      2        8          -0.000000000   -0.000000000   -0.000004334
 -------------------------------------------------------------------
 Cartesian Forces:  Max     0.000004334 RMS     0.000002502

 GradGradGradGradGradGradGradGradGradGradGradGradGradGradGradGradGradGrad
 Berny optimization.
 Using GEDIIS/GDIIS optimizer.
 Internal  Forces:  Max     0.000004334 RMS     0.000004334
 Search for a local minimum.
 Step number   3 out of a maximum of   20
 All quantities printed in internal units (Hartrees-Bohrs-Radians)
 Mixed Optimization -- En-DIIS/RFO-DIIS
 Update second derivatives using D2CorX and points    2    3
 DE= -1.78D-05 DEPred=-1.66D-05 R= 1.07D+00
 TightC=F SS=  1.41D+00  RLast= 5.22D-03 DXNew= 5.0454D-01 1.5673D-02
 Trust test= 1.07D+00 RLast= 5.22D-03 DXMaxT set to 3.00D-01
 The second derivative matrix:
                          R1
           R1           1.30965
 ITU=  1  1
 Use linear search instead of GDIIS.
     Eigenvalues ---    1.30965
 RFO step:  Lambda= 0.00000000D+00 EMin= 1.30964633D+00
 Quartic linear search produced a step of -0.00064.
 Iteration  1 RMS(Cart)=  0.00000236 RMS(Int)=  0.00000000
 Iteration  2 RMS(Cart)=  0.00000000 RMS(Int)=  0.00000000
 ClnCor:  largest displacement from symmetrization is 0.00D+00 for atom     0.
 Variable       Old X    -DE/DX   Delta X   Delta X   Delta X     New X
                                 (Linear)    (Quad)   (Total)
    R1        2.14373  -0.00000  -0.00000  -0.00000  -0.00000   2.14373
         Item               Value     Threshold  Converged?
 Maximum Force            0.000004     0.000450     YES
 RMS     Force            0.000004     0.000300     YES
 Maximum Displacement     0.000002     0.001800     YES
 RMS     Displacement     0.000002     0.001200     YES
 Predicted change in Energy=-7.169923D-12
 Optimization completed.
    -- Stationary point found.
                           ----------------------------
                           !   Optimized Parameters   !
                           ! (Angstroms and Degrees)  !
 --------------------------                            --------------------------
 ! Name  Definition              Value          Derivative Info.                !
 --------------------------------------------------------------------------------
 ! R1    R(1,2)                  1.1344         -DE/DX =    0.0                 !
 --------------------------------------------------------------------------------
 GradGradGradGradGradGradGradGradGradGradGradGradGradGradGradGradGradGrad

                          Input orientation:                          
 ---------------------------------------------------------------------
 Center     Atomic      Atomic             Coordinates (Angstroms)
 Number     Number       Type             X           Y           Z
 ---------------------------------------------------------------------
      1          6           0        0.000000    0.000000   -0.646879
      2          8           0        0.000000    0.000000    0.487536
 ---------------------------------------------------------------------
 Stoichiometry    CO
 Framework group  C*V[C*(CO)]
 Deg. of freedom     1
 Full point group                 C*V     NOp   4
 Largest Abelian subgroup         C2V     NOp   4
 Largest concise Abelian subgroup C1      NOp   1
                         Standard orientation:                         
 ---------------------------------------------------------------------
 Center     Atomic      Atomic             Coordinates (Angstroms)
 Number     Number       Type             X           Y           Z
 ---------------------------------------------------------------------
      1          6           0        0.000000    0.000000   -0.648237
      2          8           0        0.000000    0.000000    0.486178
 ---------------------------------------------------------------------
 Rotational constants (GHZ):           0.0000000          57.2782518          57.2782518

 **********************************************************************

            Population analysis using the SCF Density.

 **********************************************************************

 Orbital symmetries:
       Occupied  (SG) (SG) (SG) (SG) (PI) (PI) (SG)
       Virtual   (PI) (PI) (SG) (SG) (PI) (PI) (SG) (PI) (PI) (SG)
                 (SG) (PI) (PI) (SG) (SG) (PI) (PI) (SG) (DLTA)
                 (DLTA) (SG) (PI) (PI) (DLTA) (DLTA) (SG) (PI)
                 (PI) (SG) (SG) (SG)
 The electronic state is 1-SG.
 Alpha  occ. eigenvalues --  -19.34669 -10.36501  -1.20119  -0.59981  -0.49449
 Alpha  occ. eigenvalues --   -0.49449  -0.39530
 Alpha virt. eigenvalues --   -0.03034  -0.03034   0.03954   0.06982   0.08199
 Alpha virt. eigenvalues --    0.08199   0.19440   0.22338   0.22338   0.27472
 Alpha virt. eigenvalues --    0.43708   0.65677   0.65677   0.76395   1.04993
 Alpha virt. eigenvalues --    1.16142   1.16142   1.17316   1.47212   1.47212
 Alpha virt. eigenvalues --    1.49336   1.54187   1.54187   1.94236   1.94236
 Alpha virt. eigenvalues --    2.48896   2.61742   2.61742   3.06357   4.02704
 Alpha virt. eigenvalues --    4.18747
          Condensed to atoms (all electrons):
               1          2
     1  C    5.341621   0.524628
     2  O    0.524628   7.609122
 Mulliken charges:
               1
     1  C    0.133750
     2  O   -0.133750
 Sum of Mulliken charges =   0.00000
 Mulliken charges with hydrogens summed into heavy atoms:
               1
     1  C    0.133750
     2  O   -0.133750
 Electronic spatial extent (au):  <R**2>=             40.2347
 Charge=              0.0000 electrons
 Dipole moment (field-independent basis, Debye):
    X=              0.0000    Y=              0.0000    Z=              0.0509  Tot=              0.0509
 Quadrupole moment (field-independent basis, Debye-Ang):
   XX=            -10.2621   YY=            -10.2621   ZZ=            -12.4002
   XY=              0.0000   XZ=              0.0000   YZ=              0.0000
 Traceless Quadrupole moment (field-independent basis, Debye-Ang):
   XX=              0.7127   YY=              0.7127   ZZ=             -1.4254
   XY=              0.0000   XZ=              0.0000   YZ=              0.0000
 Octapole moment (field-independent basis, Debye-Ang**2):
  XXX=              0.0000  YYY=              0.0000  ZZZ=              6.3912  XYY=              0.0000
  XXY=              0.0000  XXZ=              1.2008  XZZ=              0.0000  YZZ=              0.0000
  YYZ=              1.2008  XYZ=              0.0000
 Hexadecapole moment (field-independent basis, Debye-Ang**3):
 XXXX=             -9.5237 YYYY=             -9.5237 ZZZZ=            -38.1279 XXXY=              0.0000
 XXXZ=              0.0000 YYYX=              0.0000 YYYZ=              0.0000 ZZZX=              0.0000
 ZZZY=              0.0000 XXYY=             -3.1746 XXZZ=             -7.3915 YYZZ=             -7.3915
 XXYZ=              0.0000 YYXZ=              0.0000 ZZXY=              0.0000
 N-N= 2.239085411652D+01 E-N=-3.101778817110D+02  KE= 1.122553556672D+02
 Symmetry A1   KE= 1.041665977504D+02
 Symmetry A2   KE=-1.624868444472D-50
 Symmetry B1   KE= 4.044378958394D+00
 Symmetry B2   KE= 4.044378958394D+00
 Unable to Open any file for archive entry.
 1\1\GINC-PCB4062-103040\FOpt\RPBE1PBE\6-31++G(d,p)\C1O1\ROOT\06-Mar-20
 24\0\\# opt freq 6-31++g(d,p) pbe1pbe\\hf_pbe1pbe_631ppGss\\0,1\C,0.,0
 .,-0.6468786029\O,0.,0.,0.4875357429\\Version=Apple M1-G16RevC.02\Stat
 e=1-SG\HF=-113.18788\RMSD=1.804e-09\RMSF=2.502e-06\Dipole=0.,0.,0.0200
 43\Quadrupole=0.5298747,0.5298747,-1.0597495,0.,0.,0.\PG=C*V [C*(C1O1)
 ]\\@
 The archive entry for this job was punched.


 MYSTERY IS THE WISDOM OF BLOCKHEADS... HORACE WALPOLE 
 Job cpu time:       0 days  0 hours  0 minutes  1.0 seconds.
 Elapsed time:       0 days  0 hours  0 minutes  1.2 seconds.
 File lengths (MBytes):  RWF=      6 Int=      0 D2E=      0 Chk=      1 Scr=      1
 Normal termination of Gaussian 16 at Wed Mar  6 10:53:35 2024.
 Link1:  Proceeding to internal job step number  2.
 ----------------------------------------------------------------------
 #N Geom=AllCheck Guess=TCheck SCRF=Check GenChk RPBE1PBE/6-31++G(d,p) 
 Freq
 ----------------------------------------------------------------------
 1/10=4,29=7,30=1,38=1,40=1/1,3;
 2/12=2,40=1/2;
 3/5=1,6=6,7=1111,11=2,14=-4,25=1,30=1,70=2,71=2,74=-13,116=1,140=1/1,2,3;
 4/5=101/1;
 5/5=2,38=6,98=1/2;
 8/6=4,10=90,11=11/1;
 11/6=1,8=1,9=11,15=111,16=1/1,2,10;
 10/6=1/2;
 6/7=2,8=2,9=2,10=2,28=1/1;
 7/8=1,10=1,25=1/1,2,3,16;
 1/10=4,30=1/3;
 99//99;
 Structure from the checkpoint file:  "co_pbe1pbe_631ppGss.chk"
 -------------------
 hf_pbe1pbe_631ppGss
 -------------------
 Charge =  0 Multiplicity = 1
 Redundant internal coordinates found in file.  (old form).
 C,0,0.,0.,-0.6468786029
 O,0,0.,0.,0.4875357429
 Recover connectivity data from disk.

 GradGradGradGradGradGradGradGradGradGradGradGradGradGradGradGradGradGrad
 Berny optimization.
 Initialization pass.
                           ----------------------------
                           !    Initial Parameters    !
                           ! (Angstroms and Degrees)  !
 --------------------------                            --------------------------
 ! Name  Definition              Value          Derivative Info.                !
 --------------------------------------------------------------------------------
 ! R1    R(1,2)                  1.1344         calculate D2E/DX2 analytically  !
 --------------------------------------------------------------------------------
 Trust Radius=3.00D-01 FncErr=1.00D-07 GrdErr=1.00D-07 EigMax=2.50D+02 EigMin=1.00D-04
 Number of steps in this run=      2 maximum allowed number of steps=      2.
 GradGradGradGradGradGradGradGradGradGradGradGradGradGradGradGradGradGrad

                          Input orientation:                          
 ---------------------------------------------------------------------
 Center     Atomic      Atomic             Coordinates (Angstroms)
 Number     Number       Type             X           Y           Z
 ---------------------------------------------------------------------
      1          6           0        0.000000    0.000000   -0.646879
      2          8           0        0.000000    0.000000    0.487536
 ---------------------------------------------------------------------
 Stoichiometry    CO
 Framework group  C*V[C*(CO)]
 Deg. of freedom     1
 Full point group                 C*V     NOp   4
 Largest Abelian subgroup         C2V     NOp   4
 Largest concise Abelian subgroup C1      NOp   1
                         Standard orientation:                         
 ---------------------------------------------------------------------
 Center     Atomic      Atomic             Coordinates (Angstroms)
 Number     Number       Type             X           Y           Z
 ---------------------------------------------------------------------
      1          6           0        0.000000    0.000000   -0.648237
      2          8           0        0.000000    0.000000    0.486178
 ---------------------------------------------------------------------
 Rotational constants (GHZ):           0.0000000          57.2782518          57.2782518
 Standard basis: 6-31++G(d,p) (6D, 7F)
 There are    20 symmetry adapted cartesian basis functions of A1  symmetry.
 There are     2 symmetry adapted cartesian basis functions of A2  symmetry.
 There are     8 symmetry adapted cartesian basis functions of B1  symmetry.
 There are     8 symmetry adapted cartesian basis functions of B2  symmetry.
 There are    20 symmetry adapted basis functions of A1  symmetry.
 There are     2 symmetry adapted basis functions of A2  symmetry.
 There are     8 symmetry adapted basis functions of B1  symmetry.
 There are     8 symmetry adapted basis functions of B2  symmetry.
    38 basis functions,    64 primitive gaussians,    38 cartesian basis functions
     7 alpha electrons        7 beta electrons
       nuclear repulsion energy        22.3908541165 Hartrees.
 NAtoms=    2 NActive=    2 NUniq=    2 SFac= 1.00D+00 NAtFMM=   60 NAOKFM=F Big=F
 Integral buffers will be    131072 words long.
 Raffenetti 2 integral format.
 Two-electron integral symmetry is turned on.
 One-electron integrals computed using PRISM.
 NBasis=    38 RedAO= T EigKep=  5.17D-03  NBF=    20     2     8     8
 NBsUse=    38 1.00D-06 EigRej= -1.00D+00 NBFU=    20     2     8     8
 Initial guess from the checkpoint file:  "co_pbe1pbe_631ppGss.chk"
 B after Tr=     0.000000    0.000000    0.000000
         Rot=    1.000000    0.000000    0.000000    0.000000 Ang=   0.00 deg.
 Initial guess orbital symmetries:
       Occupied  (SG) (SG) (SG) (SG) (PI) (PI) (SG)
       Virtual   (PI) (PI) (SG) (SG) (PI) (PI) (SG) (PI) (PI) (SG)
                 (SG) (PI) (PI) (SG) (SG) (PI) (PI) (SG) (DLTA)
                 (DLTA) (SG) (PI) (PI) (DLTA) (DLTA) (SG) (PI)
                 (PI) (SG) (SG) (SG)
 Keep R1 ints in memory in symmetry-blocked form, NReq=3734605.
 Requested convergence on RMS density matrix=1.00D-08 within 128 cycles.
 Requested convergence on MAX density matrix=1.00D-06.
 Requested convergence on             energy=1.00D-06.
 No special actions if energy rises.
 SCF Done:  E(RPBE1PBE) =  -113.187880030     A.U. after    1 cycles
            NFock=  1  Conv=0.17D-09     -V/T= 2.0083
 DoSCS=F DFT=T ScalE2(SS,OS)=  1.000000  1.000000
 Range of M.O.s used for correlation:     1    38
 NBasis=    38 NAE=     7 NBE=     7 NFC=     0 NFV=     0
 NROrb=     38 NOA=     7 NOB=     7 NVA=    31 NVB=    31
 Symmetrizing basis deriv contribution to polar:
 IMax=3 JMax=2 DiffMx= 0.00D+00
 G2DrvN: will do     3 centers at a time, making    1 passes.
 Calling FoFCou, ICntrl=  3107 FMM=F I1Cent=   0 AccDes= 0.00D+00.
 End of G2Drv F.D. properties file   721 does not exist.
 End of G2Drv F.D. properties file   722 does not exist.
 End of G2Drv F.D. properties file   788 does not exist.
          IDoAtm=11
          Differentiating once with respect to electric field.
                with respect to dipole field.
          Differentiating once with respect to nuclear coordinates.
 Keep R1 ints in memory in symmetry-blocked form, NReq=3722715.
          There are     9 degrees of freedom in the 1st order CPHF.  IDoFFX=6 NUNeed=     3.
      6 vectors produced by pass  0 Test12= 2.41D-15 1.11D-08 XBig12= 1.14D+01 2.00D+00.
 AX will form     6 AO Fock derivatives at one time.
      6 vectors produced by pass  1 Test12= 2.41D-15 1.11D-08 XBig12= 8.29D+00 1.71D+00.
      6 vectors produced by pass  2 Test12= 2.41D-15 1.11D-08 XBig12= 9.29D-02 1.23D-01.
      6 vectors produced by pass  3 Test12= 2.41D-15 1.11D-08 XBig12= 8.46D-04 1.01D-02.
      6 vectors produced by pass  4 Test12= 2.41D-15 1.11D-08 XBig12= 1.73D-06 4.61D-04.
      6 vectors produced by pass  5 Test12= 2.41D-15 1.11D-08 XBig12= 2.87D-09 1.86D-05.
      2 vectors produced by pass  6 Test12= 2.41D-15 1.11D-08 XBig12= 2.62D-12 6.47D-07.
      1 vectors produced by pass  7 Test12= 2.41D-15 1.11D-08 XBig12= 4.07D-15 2.45D-08.
 InvSVY:  IOpt=1 It=  1 EMax= 6.66D-16
 Solved reduced A of dimension    39 with     6 vectors.
 Isotropic polarizability for W=    0.000000       11.73 Bohr**3.
 End of Minotr F.D. properties file   721 does not exist.
 End of Minotr F.D. properties file   722 does not exist.
 End of Minotr F.D. properties file   788 does not exist.

 **********************************************************************

            Population analysis using the SCF Density.

 **********************************************************************

 Orbital symmetries:
       Occupied  (SG) (SG) (SG) (SG) (PI) (PI) (SG)
       Virtual   (PI) (PI) (SG) (SG) (PI) (PI) (SG) (PI) (PI) (SG)
                 (SG) (PI) (PI) (SG) (SG) (PI) (PI) (SG) (DLTA)
                 (DLTA) (SG) (PI) (PI) (DLTA) (DLTA) (SG) (PI)
                 (PI) (SG) (SG) (SG)
 The electronic state is 1-SG.
 Alpha  occ. eigenvalues --  -19.34669 -10.36501  -1.20119  -0.59981  -0.49449
 Alpha  occ. eigenvalues --   -0.49449  -0.39530
 Alpha virt. eigenvalues --   -0.03034  -0.03034   0.03954   0.06982   0.08199
 Alpha virt. eigenvalues --    0.08199   0.19440   0.22338   0.22338   0.27472
 Alpha virt. eigenvalues --    0.43708   0.65677   0.65677   0.76395   1.04993
 Alpha virt. eigenvalues --    1.16142   1.16142   1.17316   1.47212   1.47212
 Alpha virt. eigenvalues --    1.49336   1.54187   1.54187   1.94236   1.94236
 Alpha virt. eigenvalues --    2.48896   2.61742   2.61742   3.06357   4.02704
 Alpha virt. eigenvalues --    4.18747
          Condensed to atoms (all electrons):
               1          2
     1  C    5.341621   0.524628
     2  O    0.524628   7.609122
 Mulliken charges:
               1
     1  C    0.133750
     2  O   -0.133750
 Sum of Mulliken charges =  -0.00000
 Mulliken charges with hydrogens summed into heavy atoms:
               1
     1  C    0.133750
     2  O   -0.133750
 APT charges:
               1
     1  C    0.258648
     2  O   -0.258648
 Sum of APT charges =   0.00000
 APT charges with hydrogens summed into heavy atoms:
               1
     1  C    0.258648
     2  O   -0.258648
 Electronic spatial extent (au):  <R**2>=             40.2347
 Charge=              0.0000 electrons
 Dipole moment (field-independent basis, Debye):
    X=              0.0000    Y=              0.0000    Z=              0.0509  Tot=              0.0509
 Quadrupole moment (field-independent basis, Debye-Ang):
   XX=            -10.2621   YY=            -10.2621   ZZ=            -12.4002
   XY=              0.0000   XZ=              0.0000   YZ=              0.0000
 Traceless Quadrupole moment (field-independent basis, Debye-Ang):
   XX=              0.7127   YY=              0.7127   ZZ=             -1.4254
   XY=              0.0000   XZ=              0.0000   YZ=              0.0000
 Octapole moment (field-independent basis, Debye-Ang**2):
  XXX=              0.0000  YYY=              0.0000  ZZZ=              6.3912  XYY=              0.0000
  XXY=              0.0000  XXZ=              1.2008  XZZ=              0.0000  YZZ=              0.0000
  YYZ=              1.2008  XYZ=              0.0000
 Hexadecapole moment (field-independent basis, Debye-Ang**3):
 XXXX=             -9.5237 YYYY=             -9.5237 ZZZZ=            -38.1279 XXXY=              0.0000
 XXXZ=              0.0000 YYYX=              0.0000 YYYZ=              0.0000 ZZZX=              0.0000
 ZZZY=              0.0000 XXYY=             -3.1746 XXZZ=             -7.3915 YYZZ=             -7.3915
 XXYZ=              0.0000 YYXZ=              0.0000 ZZXY=              0.0000
 N-N= 2.239085411652D+01 E-N=-3.101778817654D+02  KE= 1.122553556917D+02
 Symmetry A1   KE= 1.041665977571D+02
 Symmetry A2   KE= 6.469386524785D-51
 Symmetry B1   KE= 4.044378967282D+00
 Symmetry B2   KE= 4.044378967282D+00
  Exact polarizability:       9.877       0.000       9.877       0.000       0.000      15.434
 Approx polarizability:      12.256      -0.000      12.256      -0.000      -0.000      23.922
 Calling FoFJK, ICntrl=    100127 FMM=F ISym2X=1 I1Cent= 0 IOpClX= 0 NMat=1 NMatS=1 NMatT=0.
 Full mass-weighted force constant matrix:
 Low frequencies ---   -7.6852   -7.6852    0.0014    0.0014    0.0016 2235.8648
 Diagonal vibrational polarizability:
        0.0000000       0.0000000       0.4833423
 Harmonic frequencies (cm**-1), IR intensities (KM/Mole), Raman scattering
 activities (A**4/AMU), depolarization ratios for plane and unpolarized
 incident light, reduced masses (AMU), force constants (mDyne/A),
 and normal coordinates:
                      1
                     SG
 Frequencies --   2235.8648
 Red. masses --     13.4388
 Frc consts  --     39.5822
 IR Inten    --     89.7869
  Atom  AN      X      Y      Z
     1   6     0.00   0.00   0.80
     2   8     0.00   0.00  -0.60

 -------------------
 - Thermochemistry -
 -------------------
 Temperature   298.150 Kelvin.  Pressure   1.00000 Atm.
 Atom     1 has atomic number  6 and mass  12.00000
 Atom     2 has atomic number  8 and mass  15.99491
 Molecular mass:    27.99491 amu.
 Principal axes and moments of inertia in atomic units:
                           1         2         3
     Eigenvalues --     0.00000  31.50832  31.50832
           X            0.00000  -0.00000   1.00000
           Y            0.00000   1.00000   0.00000
           Z            1.00000   0.00000   0.00000
 This molecule is a prolate symmetric top.
 Rotational symmetry number  1.
 Rotational temperature (Kelvin)      2.74892
 Rotational constant (GHZ):          57.278252
 Zero-point vibrational energy      13373.4 (Joules/Mol)
                                    3.19633 (Kcal/Mol)
 Vibrational temperatures:   3216.91
          (Kelvin)
 
 Zero-point correction=                           0.005094 (Hartree/Particle)
 Thermal correction to Energy=                    0.007454
 Thermal correction to Enthalpy=                  0.008399
 Thermal correction to Gibbs Free Energy=        -0.014039
 Sum of electronic and zero-point Energies=           -113.182786
 Sum of electronic and thermal Energies=              -113.180426
 Sum of electronic and thermal Enthalpies=            -113.179481
 Sum of electronic and thermal Free Energies=         -113.201919
 
                     E (Thermal)             CV                S
                      KCal/Mol        Cal/Mol-Kelvin    Cal/Mol-Kelvin
 Total                    4.678              4.973             47.223
 Electronic               0.000              0.000              0.000
 Translational            0.889              2.981             35.923
 Rotational               0.592              1.987             11.300
 Vibrational              3.196              0.005              0.000
                       Q            Log10(Q)             Ln(Q)
 Total Bot       0.286700D+07          6.457428         14.868778
 Total V=0       0.631472D+09          8.800354         20.263564
 Vib (Bot)       0.454029D-02         -2.342917         -5.394765
 Vib (V=0)       0.100002D+01          0.000009          0.000021
 Electronic      0.100000D+01          0.000000          0.000000
 Translational   0.582201D+07          6.765073         15.577155
 Rotational      0.108461D+03          2.035272          4.686388
 ***** Axes restored to original set *****
 -------------------------------------------------------------------
 Center     Atomic                   Forces (Hartrees/Bohr)
 Number     Number              X              Y              Z
 -------------------------------------------------------------------
      1        6          -0.000000000   -0.000000000    0.000004331
      2        8          -0.000000000   -0.000000000   -0.000004331
 -------------------------------------------------------------------
 Cartesian Forces:  Max     0.000004331 RMS     0.000002501
 FormGI is forming the generalized inverse of G from B-inverse, IUseBI=4.

 GradGradGradGradGradGradGradGradGradGradGradGradGradGradGradGradGradGrad
 Berny optimization.
 Internal  Forces:  Max     0.000004331 RMS     0.000004331
 Search for a local minimum.
 Step number   1 out of a maximum of    2
 All quantities printed in internal units (Hartrees-Bohrs-Radians)
 Second derivative matrix not updated -- analytic derivatives used.
 The second derivative matrix:
                          R1
           R1           1.29708
 ITU=  0
     Eigenvalues ---    1.29708
 Angle between quadratic step and forces=   0.00 degrees.
 Linear search not attempted -- first point.
 Iteration  1 RMS(Cart)=  0.00000236 RMS(Int)=  0.00000000
 Iteration  2 RMS(Cart)=  0.00000000 RMS(Int)=  0.00000000
 ClnCor:  largest displacement from symmetrization is 0.00D+00 for atom     0.
 Variable       Old X    -DE/DX   Delta X   Delta X   Delta X     New X
                                 (Linear)    (Quad)   (Total)
    R1        2.14373  -0.00000   0.00000  -0.00000  -0.00000   2.14373
         Item               Value     Threshold  Converged?
 Maximum Force            0.000004     0.000450     YES
 RMS     Force            0.000004     0.000300     YES
 Maximum Displacement     0.000002     0.001800     YES
 RMS     Displacement     0.000002     0.001200     YES
 Predicted change in Energy=-7.232305D-12
 Optimization completed.
    -- Stationary point found.
                           ----------------------------
                           !   Optimized Parameters   !
                           ! (Angstroms and Degrees)  !
 --------------------------                            --------------------------
 ! Name  Definition              Value          Derivative Info.                !
 --------------------------------------------------------------------------------
 ! R1    R(1,2)                  1.1344         -DE/DX =    0.0                 !
 --------------------------------------------------------------------------------
 GradGradGradGradGradGradGradGradGradGradGradGradGradGradGradGradGradGrad


 ----------------------------------------------------------------------

 Electric dipole moment (input orientation):
 (Debye = 10**-18 statcoulomb cm , SI units = C m)
                  (au)            (Debye)         (10**-30 SI)
   Tot        0.200429D-01      0.509441D-01      0.169931D+00
   x          0.000000D+00      0.000000D+00      0.000000D+00
   y          0.000000D+00      0.000000D+00      0.000000D+00
   z          0.200429D-01      0.509441D-01      0.169931D+00

 Dipole polarizability, Alpha (input orientation).
 (esu units = cm**3 , SI units = C**2 m**2 J**-1)
 Alpha(0;0):
               (au)            (10**-24 esu)      (10**-40 SI)
   iso        0.117289D+02      0.173805D+01      0.193384D+01
   aniso      0.555705D+01      0.823470D+00      0.916234D+00
   xx         0.987656D+01      0.146356D+01      0.162842D+01
   yx         0.000000D+00      0.000000D+00      0.000000D+00
   yy         0.987656D+01      0.146356D+01      0.162842D+01
   zx         0.000000D+00      0.000000D+00      0.000000D+00
   zy         0.000000D+00      0.000000D+00      0.000000D+00
   zz         0.154336D+02      0.228703D+01      0.254466D+01

 ----------------------------------------------------------------------

 Dipole orientation:
     6          0.00000000          0.00000000         -1.22242340
     8          0.00000000          0.00000000          0.92130903

 Electric dipole moment (dipole orientation):
 (Debye = 10**-18 statcoulomb cm , SI units = C m)
                  (au)            (Debye)         (10**-30 SI)
   Tot        0.200429D-01      0.509441D-01      0.169931D+00
   x          0.000000D+00      0.000000D+00      0.000000D+00
   y          0.000000D+00      0.000000D+00      0.000000D+00
   z          0.200429D-01      0.509441D-01      0.169931D+00

 Dipole polarizability, Alpha (dipole orientation).
 (esu units = cm**3 , SI units = C**2 m**2 J**-1)
 Alpha(0;0):
               (au)            (10**-24 esu)      (10**-40 SI)
   iso        0.117289D+02      0.173805D+01      0.193384D+01
   aniso      0.555705D+01      0.823470D+00      0.916234D+00
   xx         0.987656D+01      0.146356D+01      0.162842D+01
   yx         0.000000D+00      0.000000D+00      0.000000D+00
   yy         0.987656D+01      0.146356D+01      0.162842D+01
   zx         0.000000D+00      0.000000D+00      0.000000D+00
   zy         0.000000D+00      0.000000D+00      0.000000D+00
   zz         0.154336D+02      0.228703D+01      0.254466D+01

 ----------------------------------------------------------------------
 Unable to Open any file for archive entry.
 1\1\GINC-PCB4062-103040\Freq\RPBE1PBE\6-31++G(d,p)\C1O1\ROOT\06-Mar-20
 24\0\\#N Geom=AllCheck Guess=TCheck SCRF=Check GenChk RPBE1PBE/6-31++G
 (d,p) Freq\\hf_pbe1pbe_631ppGss\\0,1\C,0.,0.,-0.6468786029\O,0.,0.,0.4
 875357429\\Version=Apple M1-G16RevC.02\State=1-SG\HF=-113.18788\RMSD=1
 .728e-10\RMSF=2.501e-06\ZeroPoint=0.0050937\Thermal=0.0074543\ETot=-11
 3.1804257\HTot=-113.1794815\GTot=-113.2019189\Dipole=0.,0.,0.0200429\D
 ipoleDeriv=-0.0093497,0.,0.,0.,-0.0093497,0.,0.,0.,0.7946443,0.0093497
 ,0.,0.,0.,0.0093497,0.,0.,0.,-0.7946443\Polar=9.8765604,0.,9.8765604,0
 .,0.,15.4336125\Quadrupole=0.5298747,0.5298747,-1.0597495,0.,0.,0.\PG=
 C*V [C*(C1O1)]\NImag=0\\-0.00001532,0.,-0.00001532,0.,0.,1.29707933,0.
 00001532,0.,0.,-0.00001532,0.,0.00001532,0.,0.,-0.00001532,0.,0.,-1.29
 707933,0.,0.,1.29707933\\0.,0.,-0.00000433,0.,0.,0.00000433\\\@
 The archive entry for this job was punched.


 MYSTERY IS THE WISDOM OF BLOCKHEADS... HORACE WALPOLE 
 Job cpu time:       0 days  0 hours  0 minutes  0.7 seconds.
 Elapsed time:       0 days  0 hours  0 minutes  0.8 seconds.
 File lengths (MBytes):  RWF=      6 Int=      0 D2E=      0 Chk=      1 Scr=      1
 Normal termination of Gaussian 16 at Wed Mar  6 10:53:36 2024.
