rowenj your job 104965 is running on node P2303
/var/spool/slurmd/job104965/slurm_script: line 27: cd: too many arguments
 Entering Gaussian System, Link 0=g16
 Initial command:
 /gaussian/g16C01/g16/l1.exe "/scr/104965/Gau-15514.inp" -scrdir="/scr/104965/"
 Entering Link 1 = /gaussian/g16C01/g16/l1.exe PID=     15516.
  
 Copyright (c) 1988-2019, Gaussian, Inc.  All Rights Reserved.
  
 This is part of the Gaussian(R) 16 program.  It is based on
 the Gaussian(R) 09 system (copyright 2009, Gaussian, Inc.),
 the Gaussian(R) 03 system (copyright 2003, Gaussian, Inc.),
 the Gaussian(R) 98 system (copyright 1998, Gaussian, Inc.),
 the Gaussian(R) 94 system (copyright 1995, Gaussian, Inc.),
 the Gaussian 92(TM) system (copyright 1992, Gaussian, Inc.),
 the Gaussian 90(TM) system (copyright 1990, Gaussian, Inc.),
 the Gaussian 88(TM) system (copyright 1988, Gaussian, Inc.),
 the Gaussian 86(TM) system (copyright 1986, Carnegie Mellon
 University), and the Gaussian 82(TM) system (copyright 1983,
 Carnegie Mellon University). Gaussian is a federally registered
 trademark of Gaussian, Inc.
  
 This software contains proprietary and confidential information,
 including trade secrets, belonging to Gaussian, Inc.
  
 This software is provided under written license and may be
 used, copied, transmitted, or stored only in accord with that
 written license.
  
 The following legend is applicable only to US Government
 contracts under FAR:
  
                    RESTRICTED RIGHTS LEGEND
  
 Use, reproduction and disclosure by the US Government is
 subject to restrictions as set forth in subparagraphs (a)
 and (c) of the Commercial Computer Software - Restricted
 Rights clause in FAR 52.227-19.
  
 Gaussian, Inc.
 340 Quinnipiac St., Bldg. 40, Wallingford CT 06492
  
  
 ---------------------------------------------------------------
 Warning -- This program may not be used in any manner that
 competes with the business of Gaussian, Inc. or will provide
 assistance to any competitor of Gaussian, Inc.  The licensee
 of this program is prohibited from giving any competitor of
 Gaussian, Inc. access to this program.  By using this program,
 the user acknowledges that Gaussian, Inc. is engaged in the
 business of creating and licensing software in the field of
 computational chemistry and represents and warrants to the
 licensee that it is not a competitor of Gaussian, Inc. and that
 it will not use this program in any manner prohibited above.
 ---------------------------------------------------------------
  

 Cite this work as:
 Gaussian 16, Revision C.01,
 M. J. Frisch, G. W. Trucks, H. B. Schlegel, G. E. Scuseria, 
 M. A. Robb, J. R. Cheeseman, G. Scalmani, V. Barone, 
 G. A. Petersson, H. Nakatsuji, X. Li, M. Caricato, A. V. Marenich, 
 J. Bloino, B. G. Janesko, R. Gomperts, B. Mennucci, H. P. Hratchian, 
 J. V. Ortiz, A. F. Izmaylov, J. L. Sonnenberg, D. Williams-Young, 
 F. Ding, F. Lipparini, F. Egidi, J. Goings, B. Peng, A. Petrone, 
 T. Henderson, D. Ranasinghe, V. G. Zakrzewski, J. Gao, N. Rega, 
 G. Zheng, W. Liang, M. Hada, M. Ehara, K. Toyota, R. Fukuda, 
 J. Hasegawa, M. Ishida, T. Nakajima, Y. Honda, O. Kitao, H. Nakai, 
 T. Vreven, K. Throssell, J. A. Montgomery, Jr., J. E. Peralta, 
 F. Ogliaro, M. J. Bearpark, J. J. Heyd, E. N. Brothers, K. N. Kudin, 
 V. N. Staroverov, T. A. Keith, R. Kobayashi, J. Normand, 
 K. Raghavachari, A. P. Rendell, J. C. Burant, S. S. Iyengar, 
 J. Tomasi, M. Cossi, J. M. Millam, M. Klene, C. Adamo, R. Cammi, 
 J. W. Ochterski, R. L. Martin, K. Morokuma, O. Farkas, 
 J. B. Foresman, and D. J. Fox, Gaussian, Inc., Wallingford CT, 2019.
 
 ******************************************
 Gaussian 16:  ES64L-G16RevC.01  3-Jul-2019
                11-Apr-2025 
 ******************************************
 %chk=dol-1-pen-5-pen-trip.chk
 %mem=10GB
 %nprocshared=8
 Will use up to    8 processors via shared memory.
 ----------------------------------------------------------------------
 # freq=noraman pop=nbo opt=(tight,maxcycle=200) b3lyp def2tzvp empiric
 aldispersion=gd3 int=ultrafine scf=(maxcycle=200,tight)
 ----------------------------------------------------------------------
 1/6=200,7=10,18=20,19=15,26=4,38=1/1,3;
 2/9=110,12=2,17=6,18=5,40=1/2;
 3/5=44,7=101,11=2,25=1,30=1,71=1,74=-5,75=-5,124=31/1,2,3;
 4//1;
 5/5=2,7=200,32=2,38=5/2;
 6/7=2,8=2,9=2,10=2,28=1,40=1/1,7;
 7//1,2,3,16;
 1/6=200,7=10,18=20,19=15,26=4/3(2);
 2/9=110/2;
 99//99;
 2/9=110/2;
 3/5=44,7=101,11=2,25=1,30=1,71=1,74=-5,75=-5,124=31/1,2,3;
 4/5=5,16=3,69=1/1;
 5/5=2,7=200,32=2,38=5/2;
 7//1,2,3,16;
 1/6=200,7=10,18=20,19=15,26=4/3(-5);
 2/9=110/2;
 6/7=2,8=2,9=2,10=2,19=2,28=1,40=1/1,7;
 99/9=1/99;
 --------------------------------------------
 Title: dol-1-pen-5-pen structure from SMILES
 --------------------------------------------
 Symbolic Z-matrix:
 Charge =  0 Multiplicity = 3
 C                     2.36059   0.16477  -1.19846 
 C                     3.40942  -0.12516  -0.20016 
 C                     3.23796  -1.1715    0.71242 
 C                     4.23468  -1.44952   1.64945 
 C                     5.40312  -0.68871   1.67324 
 C                     5.57959   0.3491    0.75845 
 C                     4.58609   0.631    -0.18112 
 C                     0.9174    0.09476  -0.89415 
 C                     0.43918   0.53675   0.34125 
 C                    -0.92963   0.47755   0.62319 
 C                    -1.84516  -0.01611  -0.32082 
 C                    -3.28538  -0.07585  -0.02121 
 C                    -4.22859   0.51446  -0.87907 
 C                    -5.59592   0.4587   -0.59518 
 C                    -6.04379  -0.19018   0.5525 
 C                    -5.12615  -0.78236   1.41627 
 C                    -3.75905  -0.72473   1.13149 
 C                    -1.34527  -0.44724  -1.56086 
 C                     0.02248  -0.39127  -1.84961 
 H                     2.34169  -1.78625   0.69627 
 H                     4.10215  -2.26386   2.35735 
 H                     6.17943  -0.90774   2.4023 
 H                     6.49265   0.93909   0.77569 
 H                     4.74044   1.44728  -0.88237 
 H                     1.11397   0.945     1.08936 
 H                    -1.28262   0.83923   1.58735 
 H                    -3.90011   1.03679  -1.77551 
 H                    -6.30894   0.92492  -1.27013 
 H                    -7.10698  -0.23416   0.77351 
 H                    -5.47242  -1.29223   2.31147 
 H                    -3.06063  -1.204     1.81451 
 H                    -2.0239   -0.84428  -2.31389 
 H                     0.36969  -0.74274  -2.81807 
 

 GradGradGradGradGradGradGradGradGradGradGradGradGradGradGradGradGradGrad
 Berny optimization.
 Initialization pass.
                           ----------------------------
                           !    Initial Parameters    !
                           ! (Angstroms and Degrees)  !
 --------------------------                            --------------------------
 ! Name  Definition              Value          Derivative Info.                !
 --------------------------------------------------------------------------------
 ! R1    R(1,2)                  1.4767         estimate D2E/DX2                !
 ! R2    R(1,8)                  1.4766         estimate D2E/DX2                !
 ! R3    R(2,3)                  1.3989         estimate D2E/DX2                !
 ! R4    R(2,7)                  1.3988         estimate D2E/DX2                !
 ! R5    R(3,4)                  1.396          estimate D2E/DX2                !
 ! R6    R(3,20)                 1.087          estimate D2E/DX2                !
 ! R7    R(4,5)                  1.3945         estimate D2E/DX2                !
 ! R8    R(4,21)                 1.0871         estimate D2E/DX2                !
 ! R9    R(5,6)                  1.3946         estimate D2E/DX2                !
 ! R10   R(5,22)                 1.0873         estimate D2E/DX2                !
 ! R11   R(6,7)                  1.3962         estimate D2E/DX2                !
 ! R12   R(6,23)                 1.0872         estimate D2E/DX2                !
 ! R13   R(7,24)                 1.0871         estimate D2E/DX2                !
 ! R14   R(8,9)                  1.3965         estimate D2E/DX2                !
 ! R15   R(8,19)                 1.3964         estimate D2E/DX2                !
 ! R16   R(9,10)                 1.3988         estimate D2E/DX2                !
 ! R17   R(9,25)                 1.0871         estimate D2E/DX2                !
 ! R18   R(10,11)                1.4047         estimate D2E/DX2                !
 ! R19   R(10,26)                1.0886         estimate D2E/DX2                !
 ! R20   R(11,12)                1.4723         estimate D2E/DX2                !
 ! R21   R(11,18)                1.4048         estimate D2E/DX2                !
 ! R22   R(12,13)                1.405          estimate D2E/DX2                !
 ! R23   R(12,17)                1.405          estimate D2E/DX2                !
 ! R24   R(13,14)                1.3976         estimate D2E/DX2                !
 ! R25   R(13,27)                1.0883         estimate D2E/DX2                !
 ! R26   R(14,15)                1.3924         estimate D2E/DX2                !
 ! R27   R(14,28)                1.0869         estimate D2E/DX2                !
 ! R28   R(15,16)                1.3924         estimate D2E/DX2                !
 ! R29   R(15,29)                1.0868         estimate D2E/DX2                !
 ! R30   R(16,17)                1.3976         estimate D2E/DX2                !
 ! R31   R(16,30)                1.0869         estimate D2E/DX2                !
 ! R32   R(17,31)                1.0881         estimate D2E/DX2                !
 ! R33   R(18,19)                1.399          estimate D2E/DX2                !
 ! R34   R(18,32)                1.0887         estimate D2E/DX2                !
 ! R35   R(19,33)                1.0872         estimate D2E/DX2                !
 ! A1    A(2,1,8)              123.0622         estimate D2E/DX2                !
 ! A2    A(1,2,3)              120.0523         estimate D2E/DX2                !
 ! A3    A(1,2,7)              120.0344         estimate D2E/DX2                !
 ! A4    A(3,2,7)              119.9037         estimate D2E/DX2                !
 ! A5    A(2,3,4)              119.9547         estimate D2E/DX2                !
 ! A6    A(2,3,20)             120.9564         estimate D2E/DX2                !
 ! A7    A(4,3,20)             119.0832         estimate D2E/DX2                !
 ! A8    A(3,4,5)              120.0691         estimate D2E/DX2                !
 ! A9    A(3,4,21)             119.9485         estimate D2E/DX2                !
 ! A10   A(5,4,21)             119.9814         estimate D2E/DX2                !
 ! A11   A(4,5,6)              120.0539         estimate D2E/DX2                !
 ! A12   A(4,5,22)             119.9858         estimate D2E/DX2                !
 ! A13   A(6,5,22)             119.9597         estimate D2E/DX2                !
 ! A14   A(5,6,7)              120.1078         estimate D2E/DX2                !
 ! A15   A(5,6,23)             119.9786         estimate D2E/DX2                !
 ! A16   A(7,6,23)             119.9135         estimate D2E/DX2                !
 ! A17   A(2,7,6)              119.9068         estimate D2E/DX2                !
 ! A18   A(2,7,24)             121.0999         estimate D2E/DX2                !
 ! A19   A(6,7,24)             118.9904         estimate D2E/DX2                !
 ! A20   A(1,8,9)              120.1325         estimate D2E/DX2                !
 ! A21   A(1,8,19)             120.1233         estimate D2E/DX2                !
 ! A22   A(9,8,19)             119.7342         estimate D2E/DX2                !
 ! A23   A(8,9,10)             120.0003         estimate D2E/DX2                !
 ! A24   A(8,9,25)             121.0036         estimate D2E/DX2                !
 ! A25   A(10,9,25)            118.9884         estimate D2E/DX2                !
 ! A26   A(9,10,11)            121.1468         estimate D2E/DX2                !
 ! A27   A(9,10,26)            118.8011         estimate D2E/DX2                !
 ! A28   A(11,10,26)           120.0432         estimate D2E/DX2                !
 ! A29   A(10,11,12)           121.0039         estimate D2E/DX2                !
 ! A30   A(10,11,18)           117.9794         estimate D2E/DX2                !
 ! A31   A(12,11,18)           121.0164         estimate D2E/DX2                !
 ! A32   A(11,12,13)           121.0246         estimate D2E/DX2                !
 ! A33   A(11,12,17)           121.0298         estimate D2E/DX2                !
 ! A34   A(13,12,17)           117.9456         estimate D2E/DX2                !
 ! A35   A(12,13,14)           121.064          estimate D2E/DX2                !
 ! A36   A(12,13,27)           120.1308         estimate D2E/DX2                !
 ! A37   A(14,13,27)           118.8009         estimate D2E/DX2                !
 ! A38   A(13,14,15)           120.0467         estimate D2E/DX2                !
 ! A39   A(13,14,28)           119.9044         estimate D2E/DX2                !
 ! A40   A(15,14,28)           120.0487         estimate D2E/DX2                !
 ! A41   A(14,15,16)           119.8357         estimate D2E/DX2                !
 ! A42   A(14,15,29)           120.0753         estimate D2E/DX2                !
 ! A43   A(16,15,29)           120.089          estimate D2E/DX2                !
 ! A44   A(15,16,17)           120.0458         estimate D2E/DX2                !
 ! A45   A(15,16,30)           120.0325         estimate D2E/DX2                !
 ! A46   A(17,16,30)           119.9215         estimate D2E/DX2                !
 ! A47   A(12,17,16)           121.0623         estimate D2E/DX2                !
 ! A48   A(12,17,31)           120.1328         estimate D2E/DX2                !
 ! A49   A(16,17,31)           118.8008         estimate D2E/DX2                !
 ! A50   A(11,18,19)           121.1851         estimate D2E/DX2                !
 ! A51   A(11,18,32)           120.0441         estimate D2E/DX2                !
 ! A52   A(19,18,32)           118.7672         estimate D2E/DX2                !
 ! A53   A(8,19,18)            119.9503         estimate D2E/DX2                !
 ! A54   A(8,19,33)            121.1537         estimate D2E/DX2                !
 ! A55   A(18,19,33)           118.8912         estimate D2E/DX2                !
 ! D1    D(8,1,2,3)             39.1063         estimate D2E/DX2                !
 ! D2    D(8,1,2,7)           -142.0247         estimate D2E/DX2                !
 ! D3    D(2,1,8,9)             38.5904         estimate D2E/DX2                !
 ! D4    D(2,1,8,19)          -142.5644         estimate D2E/DX2                !
 ! D5    D(1,2,3,4)            179.5708         estimate D2E/DX2                !
 ! D6    D(1,2,3,20)             0.4499         estimate D2E/DX2                !
 ! D7    D(7,2,3,4)              0.7003         estimate D2E/DX2                !
 ! D8    D(7,2,3,20)          -178.4206         estimate D2E/DX2                !
 ! D9    D(1,2,7,6)           -179.5957         estimate D2E/DX2                !
 ! D10   D(1,2,7,24)             1.026          estimate D2E/DX2                !
 ! D11   D(3,2,7,6)             -0.7251         estimate D2E/DX2                !
 ! D12   D(3,2,7,24)           179.8967         estimate D2E/DX2                !
 ! D13   D(2,3,4,5)             -0.2507         estimate D2E/DX2                !
 ! D14   D(2,3,4,21)          -179.8846         estimate D2E/DX2                !
 ! D15   D(20,3,4,5)           178.8867         estimate D2E/DX2                !
 ! D16   D(20,3,4,21)           -0.7472         estimate D2E/DX2                !
 ! D17   D(3,4,5,6)             -0.1749         estimate D2E/DX2                !
 ! D18   D(3,4,5,22)          -179.8738         estimate D2E/DX2                !
 ! D19   D(21,4,5,6)           179.4589         estimate D2E/DX2                !
 ! D20   D(21,4,5,22)           -0.24           estimate D2E/DX2                !
 ! D21   D(4,5,6,7)              0.1498         estimate D2E/DX2                !
 ! D22   D(4,5,6,23)          -179.7713         estimate D2E/DX2                !
 ! D23   D(22,5,6,7)           179.8488         estimate D2E/DX2                !
 ! D24   D(22,5,6,23)           -0.0723         estimate D2E/DX2                !
 ! D25   D(5,6,7,2)              0.3008         estimate D2E/DX2                !
 ! D26   D(5,6,7,24)           179.6922         estimate D2E/DX2                !
 ! D27   D(23,6,7,2)          -179.778          estimate D2E/DX2                !
 ! D28   D(23,6,7,24)           -0.3866         estimate D2E/DX2                !
 ! D29   D(1,8,9,10)           179.568          estimate D2E/DX2                !
 ! D30   D(1,8,9,25)             0.5896         estimate D2E/DX2                !
 ! D31   D(19,8,9,10)            0.7183         estimate D2E/DX2                !
 ! D32   D(19,8,9,25)         -178.2601         estimate D2E/DX2                !
 ! D33   D(1,8,19,18)         -179.5515         estimate D2E/DX2                !
 ! D34   D(1,8,19,33)            1.2542         estimate D2E/DX2                !
 ! D35   D(9,8,19,18)           -0.7018         estimate D2E/DX2                !
 ! D36   D(9,8,19,33)         -179.896          estimate D2E/DX2                !
 ! D37   D(8,9,10,11)           -0.3004         estimate D2E/DX2                !
 ! D38   D(8,9,10,26)         -179.2174         estimate D2E/DX2                !
 ! D39   D(25,9,10,11)         178.6985         estimate D2E/DX2                !
 ! D40   D(25,9,10,26)          -0.2185         estimate D2E/DX2                !
 ! D41   D(9,10,11,12)        -179.9433         estimate D2E/DX2                !
 ! D42   D(9,10,11,18)          -0.1325         estimate D2E/DX2                !
 ! D43   D(26,10,11,12)         -1.0397         estimate D2E/DX2                !
 ! D44   D(26,10,11,18)        178.7711         estimate D2E/DX2                !
 ! D45   D(10,11,12,13)        126.2917         estimate D2E/DX2                !
 ! D46   D(10,11,12,17)        -53.6976         estimate D2E/DX2                !
 ! D47   D(18,11,12,13)        -53.5133         estimate D2E/DX2                !
 ! D48   D(18,11,12,17)        126.4973         estimate D2E/DX2                !
 ! D49   D(10,11,18,19)          0.149          estimate D2E/DX2                !
 ! D50   D(10,11,18,32)        179.4477         estimate D2E/DX2                !
 ! D51   D(12,11,18,19)        179.9598         estimate D2E/DX2                !
 ! D52   D(12,11,18,32)         -0.7416         estimate D2E/DX2                !
 ! D53   D(11,12,13,14)       -179.9743         estimate D2E/DX2                !
 ! D54   D(11,12,13,27)         -0.7408         estimate D2E/DX2                !
 ! D55   D(17,12,13,14)          0.0153         estimate D2E/DX2                !
 ! D56   D(17,12,13,27)        179.2489         estimate D2E/DX2                !
 ! D57   D(11,12,17,16)       -179.9716         estimate D2E/DX2                !
 ! D58   D(11,12,17,31)         -0.7209         estimate D2E/DX2                !
 ! D59   D(13,12,17,16)          0.0388         estimate D2E/DX2                !
 ! D60   D(13,12,17,31)        179.2894         estimate D2E/DX2                !
 ! D61   D(12,13,14,15)         -0.0503         estimate D2E/DX2                !
 ! D62   D(12,13,14,28)        179.7814         estimate D2E/DX2                !
 ! D63   D(27,13,14,15)       -179.2938         estimate D2E/DX2                !
 ! D64   D(27,13,14,28)          0.5379         estimate D2E/DX2                !
 ! D65   D(13,14,15,16)          0.031          estimate D2E/DX2                !
 ! D66   D(13,14,15,29)       -179.9754         estimate D2E/DX2                !
 ! D67   D(28,14,15,16)       -179.8005         estimate D2E/DX2                !
 ! D68   D(28,14,15,29)          0.1931         estimate D2E/DX2                !
 ! D69   D(14,15,16,17)          0.0225         estimate D2E/DX2                !
 ! D70   D(14,15,16,30)       -179.8181         estimate D2E/DX2                !
 ! D71   D(29,15,16,17)       -179.9711         estimate D2E/DX2                !
 ! D72   D(29,15,16,30)          0.1883         estimate D2E/DX2                !
 ! D73   D(15,16,17,12)         -0.0582         estimate D2E/DX2                !
 ! D74   D(15,16,17,31)       -179.3186         estimate D2E/DX2                !
 ! D75   D(30,16,17,12)        179.7827         estimate D2E/DX2                !
 ! D76   D(30,16,17,31)          0.5222         estimate D2E/DX2                !
 ! D77   D(11,18,19,8)           0.2674         estimate D2E/DX2                !
 ! D78   D(11,18,19,33)        179.4798         estimate D2E/DX2                !
 ! D79   D(32,18,19,8)        -179.04           estimate D2E/DX2                !
 ! D80   D(32,18,19,33)          0.1725         estimate D2E/DX2                !
 --------------------------------------------------------------------------------
 Trust Radius=3.00D-01 FncErr=1.00D-07 GrdErr=1.00D-06 EigMax=2.50D+02 EigMin=1.00D-04
 Number of steps in this run=    198 maximum allowed number of steps=    198.
 GradGradGradGradGradGradGradGradGradGradGradGradGradGradGradGradGradGrad

                          Input orientation:                          
 ---------------------------------------------------------------------
 Center     Atomic      Atomic             Coordinates (Angstroms)
 Number     Number       Type             X           Y           Z
 ---------------------------------------------------------------------
      1          6           0        2.360585    0.164770   -1.198461
      2          6           0        3.409422   -0.125160   -0.200160
      3          6           0        3.237958   -1.171504    0.712421
      4          6           0        4.234681   -1.449521    1.649448
      5          6           0        5.403120   -0.688707    1.673243
      6          6           0        5.579589    0.349095    0.758453
      7          6           0        4.586091    0.631001   -0.181117
      8          6           0        0.917401    0.094758   -0.894150
      9          6           0        0.439180    0.536748    0.341250
     10          6           0       -0.929625    0.477549    0.623185
     11          6           0       -1.845162   -0.016109   -0.320821
     12          6           0       -3.285379   -0.075853   -0.021210
     13          6           0       -4.228590    0.514457   -0.879070
     14          6           0       -5.595920    0.458696   -0.595180
     15          6           0       -6.043794   -0.190176    0.552502
     16          6           0       -5.126151   -0.782358    1.416268
     17          6           0       -3.759051   -0.724726    1.131487
     18          6           0       -1.345267   -0.447241   -1.560862
     19          6           0        0.022476   -0.391270   -1.849611
     20          1           0        2.341686   -1.786249    0.696265
     21          1           0        4.102147   -2.263858    2.357345
     22          1           0        6.179431   -0.907738    2.402300
     23          1           0        6.492648    0.939089    0.775690
     24          1           0        4.740438    1.447284   -0.882367
     25          1           0        1.113975    0.945003    1.089357
     26          1           0       -1.282618    0.839233    1.587348
     27          1           0       -3.900110    1.036792   -1.775511
     28          1           0       -6.308940    0.924923   -1.270133
     29          1           0       -7.106981   -0.234162    0.773508
     30          1           0       -5.472424   -1.292226    2.311468
     31          1           0       -3.060634   -1.204000    1.814514
     32          1           0       -2.023901   -0.844280   -2.313886
     33          1           0        0.369692   -0.742742   -2.818073
 ---------------------------------------------------------------------
                    Distance matrix (angstroms):
                    1          2          3          4          5
     1  C    0.000000
     2  C    1.476727   0.000000
     3  C    2.491361   1.398942   0.000000
     4  C    3.772102   2.419924   1.395983   0.000000
     5  C    4.269909   2.793216   2.417478   1.394508   0.000000
     6  C    3.771667   2.419397   2.792414   2.416127   1.394638
     7  C    2.491031   1.398818   2.421755   2.793390   2.418226
     8  C    1.476579   2.596181   3.093457   4.456348   5.227523
     9  C    2.490156   3.090887   3.299856   4.479115   5.283621
    10  C    3.773819   4.457408   4.482866   5.606859   6.524296
    11  C    4.300148   5.257100   5.314192   6.549895   7.547600
    12  C    5.772411   6.697374   6.655268   7.824919   8.873375
    13  C    6.606173   7.694755   7.818225   9.048622  10.036520
    14  C    7.984755   9.032891   9.077707  10.262571  11.288984
    15  C    8.592173   9.483355   9.334854  10.413275  11.512447
    16  C    7.986556   8.712104   8.402687   9.387473  10.532823
    17  C    6.608313   7.315721   7.023771   8.043218   9.178245
    18  C    3.773491   4.956038   5.167042   6.515096   7.487220
    19  C    2.489966   3.776626   4.184746   5.577274   6.438191
    20  H    2.719709   2.168607   1.086957   2.146013   3.395801
    21  H    4.644893   3.405103   2.155420   1.087119   2.154444
    22  H    5.357176   3.880487   3.402577   2.154615   1.087271
    23  H    4.644436   3.404584   3.879641   3.401077   2.154621
    24  H    2.721848   2.170159   3.414505   3.880381   3.395990
    25  H    2.719726   2.842038   3.022083   3.973192   4.626737
    26  H    4.635576   5.112776   5.024357   5.973511   6.858649
    27  H    6.347418   7.567108   7.875176   9.169892  10.070816
    28  H    8.703082   9.833315   9.973404  11.195083  12.183580
    29  H    9.678978  10.561943  10.387498  11.440178  12.550648
    30  H    8.706232   9.303629   8.856765   9.730925  10.910959
    31  H    6.351470   6.861810   6.394367   7.301311   8.480602
    32  H    4.635307   5.874178   6.078879   7.432643   8.431017
    33  H    2.722201   4.058920   4.568936   5.949489   6.746128
                    6          7          8          9         10
     6  C    0.000000
     7  C    1.396174   0.000000
     8  C    4.952957   3.775614   0.000000
     9  C    5.160724   4.180744   1.396518   0.000000
    10  C    6.511886   5.576161   2.420814   1.398792   0.000000
    11  C    7.511667   6.465237   2.823606   2.441763   1.404654
    12  C    8.909327   7.904761   4.295869   3.791965   2.504212
    13  C    9.945311   8.843038   5.163100   4.824703   3.625093
    14  C   11.257723  10.191883   6.530328   6.107817   4.822767
    15  C   11.637709  10.686767   7.115632   6.527021   5.158059
    16  C   10.785443   9.943685   6.529310   5.819675   4.452772
    17  C    9.407574   8.555835   5.161779   4.454316   3.116005
    18  C    7.346224   6.184441   2.420317   2.787564   2.407915
    19  C    6.183174   4.965430   1.396431   2.415519   2.788559
    20  H    3.879121   3.413246   2.845381   3.023554   3.978894
    21  H    3.401002   3.880490   5.126197   5.032431   5.986765
    22  H    2.154454   3.403012   6.289717   6.267771   7.458079
    23  H    1.087229   2.155309   5.880871   6.082359   7.438173
    24  H    2.145340   1.087149   4.055253   4.563676   5.946149
    25  H    4.517335   3.710565   2.166993   1.087053   2.147587
    26  H    6.929443   6.132909   3.398847   2.146822   1.088591
    27  H    9.836595   8.644210   4.987247   4.853881   3.858792
    28  H   12.074099  10.953266   7.283580   6.948695   5.720300
    29  H   12.699979  11.763832   8.202437   7.597743   6.220037
    30  H   11.280637  10.539711   7.282141   6.494149   5.159402
    31  H    8.841992   8.113087   4.984816   4.177249   2.964468
    32  H    8.287127   7.100504   3.398338   3.876049   3.401626
    33  H    6.413008   5.159334   2.168610   3.409288   3.875512
                   11         12         13         14         15
    11  C    0.000000
    12  C    1.472264   0.000000
    13  C    2.504770   1.405004   0.000000
    14  C    3.790633   2.440038   1.397603   0.000000
    15  C    4.292028   2.819764   2.416790   1.392408   0.000000
    16  C    3.790713   2.440068   2.784945   2.409735   1.392422
    17  C    2.504857   1.405031   2.407983   2.784951   2.416820
    18  C    1.404803   2.504494   3.115005   4.452113   5.158347
    19  C    2.442543   3.792683   4.453521   5.819142   6.527650
    20  H    4.658064   5.924870   7.137468   8.349443   8.537236
    21  H    6.898944   8.063525   9.359198  10.496771  10.511790
    22  H    8.520826   9.805512  11.005314  12.227466  12.383209
    23  H    8.463676   9.862807  10.856495  12.175530  12.589179
    24  H    6.769563   8.214334   9.017408  10.387496  11.001808
    25  H    3.415967   4.650787   5.709910   6.935189   7.267083
    26  H    2.165450   2.726883   3.855833   4.849001   4.979898
    27  H    2.729017   2.166436   1.088274   2.145495   3.394183
    28  H    4.659619   3.421006   2.156216   1.086889   2.153078
    29  H    5.378833   3.906569   3.402437   2.153292   1.086805
    30  H    4.659877   3.421128   3.871790   3.395524   2.152891
    31  H    2.729123   2.166358   3.401854   3.872836   3.394077
    32  H    2.165669   2.727301   2.960662   4.172651   4.980318
    33  H    3.416115   4.650455   5.146307   6.478675   7.266286
                   16         17         18         19         20
    16  C    0.000000
    17  C    1.397635   0.000000
    18  C    4.823970   3.626582   0.000000
    19  C    6.109605   4.826809   1.399010   0.000000
    20  H    7.569332   6.207676   4.525615   3.715668   0.000000
    21  H    9.393719   8.103708   6.951745   6.152136   2.467087
    22  H   11.349192  10.021072   8.517029   7.500239   4.290760
    23  H   11.763087  10.391930   8.295438   7.108107   4.966313
    24  H   10.373264   9.000808   6.409788   5.155095   4.324561
    25  H    6.483041   5.151325   3.874258   3.408009   3.020188
    26  H    4.175113   2.964203   3.401495   3.876867   4.563197
    27  H    3.872975   3.401982   2.962373   4.175109   7.282805
    28  H    3.395666   3.871828   5.158043   6.492687   9.276341
    29  H    2.153450   3.402563   6.220292   7.598328   9.575607
    30  H    1.086855   2.156399   5.722094   6.951275   7.994577
    31  H    2.145400   1.088125   3.861131   4.857150   5.547482
    32  H    4.851993   3.859486   1.088682   2.146725   5.385784
    33  H    6.937975   5.713656   2.146855   1.087203   4.162720
                   21         22         23         24         25
    21  H    0.000000
    22  H    2.481167   0.000000
    23  H    4.298255   2.480874   0.000000
    24  H    4.967467   4.290206   2.465290   0.000000
    25  H    4.564401   5.551154   5.387815   4.158271   0.000000
    26  H    6.262409   7.707025   7.818153   6.538075   2.450069
    27  H    9.592232  11.082980  10.701756   8.696280   5.775547
    28  H   11.476831  13.145525  12.964037  11.068513   7.788919
    29  H   11.500989  13.402814  13.650144  12.080171   8.311095
    30  H    9.623855  11.658551  12.267858  11.045725   7.062535
    31  H    7.261088   9.263480   9.845668   8.669440   4.750940
    32  H    7.833522   9.462616   9.233498   7.284009   4.962848
    33  H    6.559723   7.812335   7.296182   5.258003   4.320932
                   26         27         28         29         30
    26  H    0.000000
    27  H    4.266042   0.000000
    28  H    5.782426   2.463815   0.000000
    29  H    5.978103   4.289154   2.481293   0.000000
    30  H    4.756253   4.959828   4.294575   2.481249   0.000000
    31  H    2.718041   4.314412   4.959723   4.289196   2.464037
    32  H    4.313159   2.710801   4.751953   5.978457   5.786784
    33  H    4.963921   4.741823   7.055590   8.310159   7.793872
                   31         32         33
    31  H    0.000000
    32  H    4.271756   0.000000
    33  H    5.782798   2.448224   0.000000
 Stoichiometry    C19H14(3)
 Framework group  C1[X(C19H14)]
 Deg. of freedom    93
 Full point group                 C1      NOp   1
 Largest Abelian subgroup         C1      NOp   1
 Largest concise Abelian subgroup C1      NOp   1
                         Standard orientation:                         
 ---------------------------------------------------------------------
 Center     Atomic      Atomic             Coordinates (Angstroms)
 Number     Number       Type             X           Y           Z
 ---------------------------------------------------------------------
      1          6           0        2.402258   -1.465131    0.116772
      2          6           0        3.509184   -0.489201    0.061994
      3          6           0        3.408159    0.724130    0.750952
      4          6           0        4.459501    1.641379    0.705082
      5          6           0        5.612232    1.347131   -0.022436
      6          6           0        5.718303    0.134228   -0.702605
      7          6           0        4.669966   -0.786880   -0.659576
      8          6           0        0.979354   -1.071969    0.084311
      9          6           0        0.560133   -0.024185   -0.738285
     10          6           0       -0.789942    0.340042   -0.773682
     11          6           0       -1.745346   -0.335623    0.003321
     12          6           0       -3.165746    0.049570   -0.037299
     13          6           0       -4.165553   -0.898435   -0.312452
     14          6           0       -5.514118   -0.533576   -0.351739
     15          6           0       -5.886215    0.787171   -0.115153
     16          6           0       -4.911577    1.742834    0.159852
     17          6           0       -3.563326    1.376535    0.197665
     18          6           0       -1.304953   -1.392593    0.817165
     19          6           0        0.043757   -1.762127    0.857849
     20          1           0        2.524666    0.962021    1.337743
     21          1           0        4.381659    2.583420    1.242042
     22          1           0        6.431092    2.061644   -0.055558
     23          1           0        6.619103   -0.095503   -1.266386
     24          1           0        4.769905   -1.724549   -1.200576
     25          1           0        1.266269    0.508612   -1.370096
     26          1           0       -1.097254    1.151132   -1.431500
     27          1           0       -3.896532   -1.933904   -0.511876
     28          1           0       -6.271750   -1.281714   -0.569932
     29          1           0       -6.934785    1.071326   -0.145195
     30          1           0       -5.198674    2.774074    0.347924
     31          1           0       -2.819577    2.137405    0.425545
     32          1           0       -2.015410   -1.933480    1.439999
     33          1           0        0.344866   -2.580283    1.507437
 ---------------------------------------------------------------------
 Rotational constants (GHZ):           1.3533765           0.1399111           0.1316945
 Standard basis: def2TZVP (5D, 7F)
 There are   768 symmetry adapted cartesian basis functions of A   symmetry.
 There are   673 symmetry adapted basis functions of A   symmetry.
   673 basis functions,  1081 primitive gaussians,   768 cartesian basis functions
    65 alpha electrons       63 beta electrons
       nuclear repulsion energy      1162.2130617547 Hartrees.
 NAtoms=   33 NActive=   33 NUniq=   33 SFac= 1.00D+00 NAtFMM=   60 NAOKFM=F Big=F
 Integral buffers will be    131072 words long.
 Raffenetti 2 integral format.
 Two-electron integral symmetry is turned on.
 Nuclear repulsion after empirical dispersion term =     1162.1869235976 Hartrees.
 One-electron integrals computed using PRISM.
   1 Symmetry operations used in ECPInt.
 ECPInt:  NShTT=   35245 NPrTT=  108340 LenC2=   29197 LenP2D=   64359.
 LDataN:  DoStor=T MaxTD1= 6 Len=  172
 NBasis=   673 RedAO= T EigKep=  7.35D-06  NBF=   673
 NBsUse=   673 1.00D-06 EigRej= -1.00D+00 NBFU=   673
 ExpMin= 9.52D-02 ExpMax= 1.36D+04 ExpMxC= 4.63D+02 IAcc=3 IRadAn=         5 AccDes= 0.00D+00
 Harris functional with IExCor=  402 and IRadAn=       5 diagonalized for initial guess.
 HarFok:  IExCor=  402 AccDes= 0.00D+00 IRadAn=         5 IDoV= 1 UseB2=F ITyADJ=14
 ICtDFT=  3500011 ScaDFX=  1.000000  1.000000  1.000000  1.000000
 FoFCou: FMM=F IPFlag=           0 FMFlag=      100000 FMFlg1=           0
         NFxFlg=           0 DoJE=T BraDBF=F KetDBF=T FulRan=T
         wScrn=  0.000000 ICntrl=       500 IOpCl=  0 I1Cent=   200000004 NGrid=           0
         NMat0=    1 NMatS0=      1 NMatT0=    0 NMatD0=    1 NMtDS0=    0 NMtDT0=    0
 Petite list used in FoFCou.
 Initial guess <Sx>= 0.0000 <Sy>= 0.0000 <Sz>= 1.0000 <S**2>= 2.0000 S= 1.0000
 Requested convergence on RMS density matrix=1.00D-08 within 200 cycles.
 Requested convergence on MAX density matrix=1.00D-06.
 Requested convergence on             energy=1.00D-06.
 No special actions if energy rises.
 Integral accuracy reduced to 1.0D-05 until final iterations.
 Problem detected with inexpensive integrals.
 Switching to full accuracy and repeating last cycle.
 SCF Done:  E(UB3LYP) =  -732.634857931     A.U. after   19 cycles
            NFock= 19  Conv=0.98D-08     -V/T= 2.0057
 <Sx>= 0.0000 <Sy>= 0.0000 <Sz>= 1.0000 <S**2>= 2.0379 S= 1.0126
 <L.S>=  0.00000000000    
 Annihilation of the first spin contaminant:
 S**2 before annihilation     2.0379,   after     2.0009

 **********************************************************************

            Population analysis using the SCF Density.

 **********************************************************************

 Orbital symmetries:
 Alpha Orbitals:
       Occupied  (A) (A) (A) (A) (A) (A) (A) (A) (A) (A) (A) (A)
                 (A) (A) (A) (A) (A) (A) (A) (A) (A) (A) (A) (A)
                 (A) (A) (A) (A) (A) (A) (A) (A) (A) (A) (A) (A)
                 (A) (A) (A) (A) (A) (A) (A) (A) (A) (A) (A) (A)
                 (A) (A) (A) (A) (A) (A) (A) (A) (A) (A) (A) (A)
                 (A) (A) (A) (A) (A)
       Virtual   (A) (A) (A) (A) (A) (A) (A) (A) (A) (A) (A) (A)
                 (A) (A) (A) (A) (A) (A) (A) (A) (A) (A) (A) (A)
                 (A) (A) (A) (A) (A) (A) (A) (A) (A) (A) (A) (A)
                 (A) (A) (A) (A) (A) (A) (A) (A) (A) (A) (A) (A)
                 (A) (A) (A) (A) (A) (A) (A) (A) (A) (A) (A) (A)
                 (A) (A) (A) (A) (A) (A) (A) (A) (A) (A) (A) (A)
                 (A) (A) (A) (A) (A) (A) (A) (A) (A) (A) (A) (A)
                 (A) (A) (A) (A) (A) (A) (A) (A) (A) (A) (A) (A)
                 (A) (A) (A) (A) (A) (A) (A) (A) (A) (A) (A) (A)
                 (A) (A) (A) (A) (A) (A) (A) (A) (A) (A) (A) (A)
                 (A) (A) (A) (A) (A) (A) (A) (A) (A) (A) (A) (A)
                 (A) (A) (A) (A) (A) (A) (A) (A) (A) (A) (A) (A)
                 (A) (A) (A) (A) (A) (A) (A) (A) (A) (A) (A) (A)
                 (A) (A) (A) (A) (A) (A) (A) (A) (A) (A) (A) (A)
                 (A) (A) (A) (A) (A) (A) (A) (A) (A) (A) (A) (A)
                 (A) (A) (A) (A) (A) (A) (A) (A) (A) (A) (A) (A)
                 (A) (A) (A) (A) (A) (A) (A) (A) (A) (A) (A) (A)
                 (A) (A) (A) (A) (A) (A) (A) (A) (A) (A) (A) (A)
                 (A) (A) (A) (A) (A) (A) (A) (A) (A) (A) (A) (A)
                 (A) (A) (A) (A) (A) (A) (A) (A) (A) (A) (A) (A)
                 (A) (A) (A) (A) (A) (A) (A) (A) (A) (A) (A) (A)
                 (A) (A) (A) (A) (A) (A) (A) (A) (A) (A) (A) (A)
                 (A) (A) (A) (A) (A) (A) (A) (A) (A) (A) (A) (A)
                 (A) (A) (A) (A) (A) (A) (A) (A) (A) (A) (A) (A)
                 (A) (A) (A) (A) (A) (A) (A) (A) (A) (A) (A) (A)
                 (A) (A) (A) (A) (A) (A) (A) (A) (A) (A) (A) (A)
                 (A) (A) (A) (A) (A) (A) (A) (A) (A) (A) (A) (A)
                 (A) (A) (A) (A) (A) (A) (A) (A) (A) (A) (A) (A)
                 (A) (A) (A) (A) (A) (A) (A) (A) (A) (A) (A) (A)
                 (A) (A) (A) (A) (A) (A) (A) (A) (A) (A) (A) (A)
                 (A) (A) (A) (A) (A) (A) (A) (A) (A) (A) (A) (A)
                 (A) (A) (A) (A) (A) (A) (A) (A) (A) (A) (A) (A)
                 (A) (A) (A) (A) (A) (A) (A) (A) (A) (A) (A) (A)
                 (A) (A) (A) (A) (A) (A) (A) (A) (A) (A) (A) (A)
                 (A) (A) (A) (A) (A) (A) (A) (A) (A) (A) (A) (A)
                 (A) (A) (A) (A) (A) (A) (A) (A) (A) (A) (A) (A)
                 (A) (A) (A) (A) (A) (A) (A) (A) (A) (A) (A) (A)
                 (A) (A) (A) (A) (A) (A) (A) (A) (A) (A) (A) (A)
                 (A) (A) (A) (A) (A) (A) (A) (A) (A) (A) (A) (A)
                 (A) (A) (A) (A) (A) (A) (A) (A) (A) (A) (A) (A)
                 (A) (A) (A) (A) (A) (A) (A) (A) (A) (A) (A) (A)
                 (A) (A) (A) (A) (A) (A) (A) (A) (A) (A) (A) (A)
                 (A) (A) (A) (A) (A) (A) (A) (A) (A) (A) (A) (A)
                 (A) (A) (A) (A) (A) (A) (A) (A) (A) (A) (A) (A)
                 (A) (A) (A) (A) (A) (A) (A) (A) (A) (A) (A) (A)
                 (A) (A) (A) (A) (A) (A) (A) (A) (A) (A) (A) (A)
                 (A) (A) (A) (A) (A) (A) (A) (A) (A) (A) (A) (A)
                 (A) (A) (A) (A) (A) (A) (A) (A) (A) (A) (A) (A)
                 (A) (A) (A) (A) (A) (A) (A) (A) (A) (A) (A) (A)
                 (A) (A) (A) (A) (A) (A) (A) (A) (A) (A) (A) (A)
                 (A) (A) (A) (A) (A) (A) (A) (A)
 Beta  Orbitals:
       Occupied  (A) (A) (A) (A) (A) (A) (A) (A) (A) (A) (A) (A)
                 (A) (A) (A) (A) (A) (A) (A) (A) (A) (A) (A) (A)
                 (A) (A) (A) (A) (A) (A) (A) (A) (A) (A) (A) (A)
                 (A) (A) (A) (A) (A) (A) (A) (A) (A) (A) (A) (A)
                 (A) (A) (A) (A) (A) (A) (A) (A) (A) (A) (A) (A)
                 (A) (A) (A)
       Virtual   (A) (A) (A) (A) (A) (A) (A) (A) (A) (A) (A) (A)
                 (A) (A) (A) (A) (A) (A) (A) (A) (A) (A) (A) (A)
                 (A) (A) (A) (A) (A) (A) (A) (A) (A) (A) (A) (A)
                 (A) (A) (A) (A) (A) (A) (A) (A) (A) (A) (A) (A)
                 (A) (A) (A) (A) (A) (A) (A) (A) (A) (A) (A) (A)
                 (A) (A) (A) (A) (A) (A) (A) (A) (A) (A) (A) (A)
                 (A) (A) (A) (A) (A) (A) (A) (A) (A) (A) (A) (A)
                 (A) (A) (A) (A) (A) (A) (A) (A) (A) (A) (A) (A)
                 (A) (A) (A) (A) (A) (A) (A) (A) (A) (A) (A) (A)
                 (A) (A) (A) (A) (A) (A) (A) (A) (A) (A) (A) (A)
                 (A) (A) (A) (A) (A) (A) (A) (A) (A) (A) (A) (A)
                 (A) (A) (A) (A) (A) (A) (A) (A) (A) (A) (A) (A)
                 (A) (A) (A) (A) (A) (A) (A) (A) (A) (A) (A) (A)
                 (A) (A) (A) (A) (A) (A) (A) (A) (A) (A) (A) (A)
                 (A) (A) (A) (A) (A) (A) (A) (A) (A) (A) (A) (A)
                 (A) (A) (A) (A) (A) (A) (A) (A) (A) (A) (A) (A)
                 (A) (A) (A) (A) (A) (A) (A) (A) (A) (A) (A) (A)
                 (A) (A) (A) (A) (A) (A) (A) (A) (A) (A) (A) (A)
                 (A) (A) (A) (A) (A) (A) (A) (A) (A) (A) (A) (A)
                 (A) (A) (A) (A) (A) (A) (A) (A) (A) (A) (A) (A)
                 (A) (A) (A) (A) (A) (A) (A) (A) (A) (A) (A) (A)
                 (A) (A) (A) (A) (A) (A) (A) (A) (A) (A) (A) (A)
                 (A) (A) (A) (A) (A) (A) (A) (A) (A) (A) (A) (A)
                 (A) (A) (A) (A) (A) (A) (A) (A) (A) (A) (A) (A)
                 (A) (A) (A) (A) (A) (A) (A) (A) (A) (A) (A) (A)
                 (A) (A) (A) (A) (A) (A) (A) (A) (A) (A) (A) (A)
                 (A) (A) (A) (A) (A) (A) (A) (A) (A) (A) (A) (A)
                 (A) (A) (A) (A) (A) (A) (A) (A) (A) (A) (A) (A)
                 (A) (A) (A) (A) (A) (A) (A) (A) (A) (A) (A) (A)
                 (A) (A) (A) (A) (A) (A) (A) (A) (A) (A) (A) (A)
                 (A) (A) (A) (A) (A) (A) (A) (A) (A) (A) (A) (A)
                 (A) (A) (A) (A) (A) (A) (A) (A) (A) (A) (A) (A)
                 (A) (A) (A) (A) (A) (A) (A) (A) (A) (A) (A) (A)
                 (A) (A) (A) (A) (A) (A) (A) (A) (A) (A) (A) (A)
                 (A) (A) (A) (A) (A) (A) (A) (A) (A) (A) (A) (A)
                 (A) (A) (A) (A) (A) (A) (A) (A) (A) (A) (A) (A)
                 (A) (A) (A) (A) (A) (A) (A) (A) (A) (A) (A) (A)
                 (A) (A) (A) (A) (A) (A) (A) (A) (A) (A) (A) (A)
                 (A) (A) (A) (A) (A) (A) (A) (A) (A) (A) (A) (A)
                 (A) (A) (A) (A) (A) (A) (A) (A) (A) (A) (A) (A)
                 (A) (A) (A) (A) (A) (A) (A) (A) (A) (A) (A) (A)
                 (A) (A) (A) (A) (A) (A) (A) (A) (A) (A) (A) (A)
                 (A) (A) (A) (A) (A) (A) (A) (A) (A) (A) (A) (A)
                 (A) (A) (A) (A) (A) (A) (A) (A) (A) (A) (A) (A)
                 (A) (A) (A) (A) (A) (A) (A) (A) (A) (A) (A) (A)
                 (A) (A) (A) (A) (A) (A) (A) (A) (A) (A) (A) (A)
                 (A) (A) (A) (A) (A) (A) (A) (A) (A) (A) (A) (A)
                 (A) (A) (A) (A) (A) (A) (A) (A) (A) (A) (A) (A)
                 (A) (A) (A) (A) (A) (A) (A) (A) (A) (A) (A) (A)
                 (A) (A) (A) (A) (A) (A) (A) (A) (A) (A) (A) (A)
                 (A) (A) (A) (A) (A) (A) (A) (A) (A) (A)
 The electronic state is 3-A.
 Alpha  occ. eigenvalues --  -10.21274 -10.19692 -10.19618 -10.19335 -10.19160
 Alpha  occ. eigenvalues --  -10.18511 -10.18448 -10.18336 -10.18302 -10.18268
 Alpha  occ. eigenvalues --  -10.18255 -10.18202 -10.18193 -10.18172 -10.18156
 Alpha  occ. eigenvalues --  -10.18099 -10.18087 -10.18073 -10.17936  -0.87964
 Alpha  occ. eigenvalues --   -0.86858  -0.85549  -0.80214  -0.77146  -0.75580
 Alpha  occ. eigenvalues --   -0.75428  -0.74938  -0.73440  -0.67328  -0.62524
 Alpha  occ. eigenvalues --   -0.62242  -0.61332  -0.60311  -0.59002  -0.56785
 Alpha  occ. eigenvalues --   -0.53488  -0.51892  -0.48943  -0.47623  -0.47154
 Alpha  occ. eigenvalues --   -0.46243  -0.45347  -0.45034  -0.44812  -0.42991
 Alpha  occ. eigenvalues --   -0.42935  -0.42574  -0.42496  -0.39180  -0.38438
 Alpha  occ. eigenvalues --   -0.38162  -0.37286  -0.36048  -0.35980  -0.35493
 Alpha  occ. eigenvalues --   -0.34864  -0.34288  -0.30153  -0.29906  -0.26921
 Alpha  occ. eigenvalues --   -0.26433  -0.26119  -0.26029  -0.23337  -0.18589
 Alpha virt. eigenvalues --   -0.03258  -0.02996  -0.02041  -0.01506  -0.00820
 Alpha virt. eigenvalues --    0.01503   0.04630   0.04789   0.05669   0.06594
 Alpha virt. eigenvalues --    0.07301   0.07998   0.08324   0.08495   0.10019
 Alpha virt. eigenvalues --    0.10208   0.10635   0.11068   0.11668   0.12070
 Alpha virt. eigenvalues --    0.12651   0.13175   0.13733   0.14100   0.15514
 Alpha virt. eigenvalues --    0.16021   0.17355   0.18223   0.18668   0.19214
 Alpha virt. eigenvalues --    0.19630   0.20073   0.20640   0.21005   0.21205
 Alpha virt. eigenvalues --    0.21616   0.22098   0.22303   0.22781   0.22999
 Alpha virt. eigenvalues --    0.23327   0.23691   0.24010   0.24790   0.25029
 Alpha virt. eigenvalues --    0.25534   0.26412   0.26669   0.26734   0.27755
 Alpha virt. eigenvalues --    0.28135   0.28414   0.29314   0.29685   0.30196
 Alpha virt. eigenvalues --    0.31079   0.32140   0.32354   0.32710   0.33060
 Alpha virt. eigenvalues --    0.33333   0.33884   0.34377   0.34672   0.34824
 Alpha virt. eigenvalues --    0.35696   0.36028   0.36569   0.37182   0.37259
 Alpha virt. eigenvalues --    0.37782   0.38127   0.38345   0.38627   0.39054
 Alpha virt. eigenvalues --    0.39559   0.40077   0.41100   0.41469   0.41563
 Alpha virt. eigenvalues --    0.41706   0.42089   0.42679   0.43021   0.43466
 Alpha virt. eigenvalues --    0.44382   0.44794   0.45252   0.45909   0.46167
 Alpha virt. eigenvalues --    0.46803   0.47175   0.48005   0.48508   0.48658
 Alpha virt. eigenvalues --    0.49036   0.49348   0.49644   0.50033   0.51152
 Alpha virt. eigenvalues --    0.51315   0.52716   0.53244   0.54548   0.55242
 Alpha virt. eigenvalues --    0.56668   0.57523   0.58801   0.59150   0.59430
 Alpha virt. eigenvalues --    0.60249   0.61559   0.62650   0.63101   0.64515
 Alpha virt. eigenvalues --    0.64998   0.65789   0.66222   0.66329   0.67441
 Alpha virt. eigenvalues --    0.67624   0.68085   0.68375   0.69247   0.69345
 Alpha virt. eigenvalues --    0.69814   0.70551   0.71502   0.72091   0.72458
 Alpha virt. eigenvalues --    0.73432   0.73525   0.74113   0.74590   0.76252
 Alpha virt. eigenvalues --    0.76519   0.76925   0.77804   0.78918   0.79562
 Alpha virt. eigenvalues --    0.80235   0.80432   0.81172   0.82737   0.83141
 Alpha virt. eigenvalues --    0.83763   0.84049   0.84663   0.85849   0.86866
 Alpha virt. eigenvalues --    0.87311   0.88136   0.88438   0.89273   0.90199
 Alpha virt. eigenvalues --    0.91384   0.91840   0.92341   0.93192   0.93502
 Alpha virt. eigenvalues --    0.95024   0.97372   0.97559   0.99333   0.99851
 Alpha virt. eigenvalues --    1.00285   1.00801   1.01764   1.02547   1.03187
 Alpha virt. eigenvalues --    1.03725   1.04349   1.06371   1.07366   1.07669
 Alpha virt. eigenvalues --    1.09147   1.10549   1.11351   1.11734   1.14205
 Alpha virt. eigenvalues --    1.16428   1.16842   1.17262   1.17781   1.18779
 Alpha virt. eigenvalues --    1.19196   1.19359   1.20074   1.21311   1.21480
 Alpha virt. eigenvalues --    1.22244   1.23106   1.23769   1.24570   1.25017
 Alpha virt. eigenvalues --    1.25441   1.26307   1.26900   1.27209   1.27688
 Alpha virt. eigenvalues --    1.28749   1.29647   1.30220   1.30917   1.31266
 Alpha virt. eigenvalues --    1.32473   1.34046   1.35032   1.35857   1.36641
 Alpha virt. eigenvalues --    1.38175   1.39151   1.39667   1.40617   1.41381
 Alpha virt. eigenvalues --    1.42324   1.43148   1.44265   1.45082   1.45130
 Alpha virt. eigenvalues --    1.45868   1.47474   1.48448   1.48540   1.49126
 Alpha virt. eigenvalues --    1.49560   1.50439   1.51657   1.52366   1.52950
 Alpha virt. eigenvalues --    1.54458   1.55272   1.55703   1.56411   1.56964
 Alpha virt. eigenvalues --    1.57700   1.58419   1.59965   1.60842   1.61377
 Alpha virt. eigenvalues --    1.62200   1.63370   1.63985   1.64592   1.64985
 Alpha virt. eigenvalues --    1.65962   1.67015   1.67826   1.68197   1.68628
 Alpha virt. eigenvalues --    1.68928   1.69741   1.70156   1.70698   1.70803
 Alpha virt. eigenvalues --    1.71727   1.73215   1.73571   1.75258   1.76886
 Alpha virt. eigenvalues --    1.77694   1.79201   1.79869   1.80110   1.83108
 Alpha virt. eigenvalues --    1.83982   1.84551   1.85951   1.86269   1.86706
 Alpha virt. eigenvalues --    1.89713   1.90868   1.91326   1.92610   1.93250
 Alpha virt. eigenvalues --    1.96649   1.97943   1.99779   2.00144   2.01755
 Alpha virt. eigenvalues --    2.02353   2.02917   2.04301   2.05869   2.06364
 Alpha virt. eigenvalues --    2.06710   2.07162   2.07974   2.09498   2.10570
 Alpha virt. eigenvalues --    2.12499   2.12981   2.14241   2.15562   2.15708
 Alpha virt. eigenvalues --    2.16249   2.18699   2.18742   2.19401   2.21352
 Alpha virt. eigenvalues --    2.22454   2.23119   2.23316   2.24985   2.26152
 Alpha virt. eigenvalues --    2.26492   2.29718   2.30701   2.32455   2.33278
 Alpha virt. eigenvalues --    2.34531   2.36645   2.37517   2.38416   2.41552
 Alpha virt. eigenvalues --    2.42807   2.43990   2.45406   2.45621   2.47203
 Alpha virt. eigenvalues --    2.49634   2.50599   2.51477   2.54092   2.54380
 Alpha virt. eigenvalues --    2.55282   2.55846   2.56834   2.56963   2.57969
 Alpha virt. eigenvalues --    2.59179   2.59818   2.60096   2.60576   2.61704
 Alpha virt. eigenvalues --    2.62174   2.62889   2.63530   2.64168   2.64384
 Alpha virt. eigenvalues --    2.64774   2.65193   2.65586   2.66139   2.66738
 Alpha virt. eigenvalues --    2.67022   2.67539   2.68413   2.68951   2.69795
 Alpha virt. eigenvalues --    2.71456   2.71620   2.72177   2.72769   2.73607
 Alpha virt. eigenvalues --    2.74338   2.75468   2.75994   2.76331   2.76438
 Alpha virt. eigenvalues --    2.77265   2.77909   2.78629   2.79391   2.80250
 Alpha virt. eigenvalues --    2.80894   2.81382   2.82076   2.82388   2.82891
 Alpha virt. eigenvalues --    2.83164   2.83792   2.83897   2.84592   2.84998
 Alpha virt. eigenvalues --    2.85821   2.86286   2.86814   2.87810   2.88429
 Alpha virt. eigenvalues --    2.89712   2.90313   2.92498   2.93602   2.94828
 Alpha virt. eigenvalues --    2.96262   2.96792   2.97088   2.99328   3.01101
 Alpha virt. eigenvalues --    3.01149   3.02698   3.03367   3.03891   3.04854
 Alpha virt. eigenvalues --    3.05503   3.06500   3.06589   3.07419   3.09155
 Alpha virt. eigenvalues --    3.10244   3.11271   3.12013   3.12360   3.12508
 Alpha virt. eigenvalues --    3.13139   3.13494   3.14288   3.14517   3.14965
 Alpha virt. eigenvalues --    3.15568   3.15919   3.16407   3.17595   3.18061
 Alpha virt. eigenvalues --    3.18731   3.18962   3.19881   3.20259   3.20524
 Alpha virt. eigenvalues --    3.23074   3.23442   3.24168   3.24540   3.24876
 Alpha virt. eigenvalues --    3.25882   3.26157   3.27589   3.28130   3.29428
 Alpha virt. eigenvalues --    3.30227   3.30525   3.30924   3.32053   3.32188
 Alpha virt. eigenvalues --    3.32872   3.33770   3.34749   3.35262   3.35950
 Alpha virt. eigenvalues --    3.37216   3.37318   3.37589   3.38122   3.39307
 Alpha virt. eigenvalues --    3.39656   3.41310   3.41692   3.42451   3.42781
 Alpha virt. eigenvalues --    3.43366   3.43676   3.44370   3.44975   3.45276
 Alpha virt. eigenvalues --    3.45547   3.46359   3.47371   3.47596   3.48689
 Alpha virt. eigenvalues --    3.49484   3.49778   3.50719   3.51568   3.52383
 Alpha virt. eigenvalues --    3.52914   3.54107   3.55048   3.55084   3.56488
 Alpha virt. eigenvalues --    3.56893   3.58345   3.59319   3.60465   3.60806
 Alpha virt. eigenvalues --    3.63441   3.64118   3.64736   3.65474   3.67932
 Alpha virt. eigenvalues --    3.68939   3.69825   3.73837   3.74257   3.76196
 Alpha virt. eigenvalues --    3.77082   3.78951   3.80092   3.82514   3.82707
 Alpha virt. eigenvalues --    3.84381   3.87155   3.89217   3.90428   3.90979
 Alpha virt. eigenvalues --    3.91997   3.93374   3.93834   3.94841   3.95498
 Alpha virt. eigenvalues --    3.96708   3.97328   4.00513   4.00952   4.01851
 Alpha virt. eigenvalues --    4.03429   4.03587   4.04640   4.09104   4.09423
 Alpha virt. eigenvalues --    4.10526   4.10954   4.11191   4.13539   4.15171
 Alpha virt. eigenvalues --    4.16796   4.17523   4.17666   4.19476   4.19868
 Alpha virt. eigenvalues --    4.20202   4.20897   4.21056   4.22020   4.22368
 Alpha virt. eigenvalues --    4.23161   4.24495   4.24817   4.25802   4.26613
 Alpha virt. eigenvalues --    4.28073   4.28542   4.29629   4.31727   4.32018
 Alpha virt. eigenvalues --    4.33962   4.35708   4.38747   4.39522   4.42417
 Alpha virt. eigenvalues --    4.43919   4.45153   4.47608   4.51423   4.55760
 Alpha virt. eigenvalues --    4.57933   4.60878   4.61453   4.63672   4.65102
 Alpha virt. eigenvalues --    4.67158   4.67854   4.68947   4.69268   4.70863
 Alpha virt. eigenvalues --    4.71581   4.74184   4.74960   4.79223   4.83791
 Alpha virt. eigenvalues --    4.85087   4.87949   4.89758   4.90390   4.94179
 Alpha virt. eigenvalues --    4.95269   4.99021   5.02943   5.03523   5.06635
 Alpha virt. eigenvalues --    5.11540   5.18375   5.20797   5.21136   5.21552
 Alpha virt. eigenvalues --    5.23309   5.30495   5.34149   5.36900   5.37896
 Alpha virt. eigenvalues --    5.41349   5.42894   5.44017   5.47972   5.52329
 Alpha virt. eigenvalues --    5.61877   5.65793   5.67367   5.77852  21.91825
 Alpha virt. eigenvalues --   21.98104  22.20761  22.38066  22.52981  22.55154
 Alpha virt. eigenvalues --   22.56979  22.57047  22.62806  22.65667  22.68492
 Alpha virt. eigenvalues --   22.69935  22.75170  22.80285  22.80699  22.88550
 Alpha virt. eigenvalues --   23.12923  23.18299  23.34516
  Beta  occ. eigenvalues --  -10.19810 -10.19738 -10.19190 -10.19103 -10.18801
  Beta  occ. eigenvalues --  -10.18403 -10.18319 -10.18309 -10.18223 -10.18222
  Beta  occ. eigenvalues --  -10.18158 -10.18149 -10.18134 -10.18088 -10.18078
  Beta  occ. eigenvalues --  -10.18075 -10.18011 -10.18003 -10.17918  -0.87617
  Beta  occ. eigenvalues --   -0.86448  -0.85361  -0.79359  -0.76517  -0.75378
  Beta  occ. eigenvalues --   -0.75171  -0.74817  -0.73152  -0.65395  -0.62300
  Beta  occ. eigenvalues --   -0.61840  -0.61073  -0.60155  -0.58661  -0.55863
  Beta  occ. eigenvalues --   -0.53361  -0.51463  -0.48516  -0.47307  -0.46795
  Beta  occ. eigenvalues --   -0.45842  -0.45119  -0.44953  -0.44479  -0.42882
  Beta  occ. eigenvalues --   -0.42845  -0.42486  -0.42086  -0.38415  -0.37962
  Beta  occ. eigenvalues --   -0.37597  -0.36953  -0.35870  -0.35572  -0.35261
  Beta  occ. eigenvalues --   -0.34745  -0.33885  -0.28475  -0.27364  -0.26306
  Beta  occ. eigenvalues --   -0.26089  -0.25802  -0.24723
  Beta virt. eigenvalues --   -0.10492  -0.08025  -0.02606  -0.02471  -0.01855
  Beta virt. eigenvalues --   -0.00990   0.00228   0.03484   0.04679   0.04895
  Beta virt. eigenvalues --    0.05803   0.06620   0.07330   0.08055   0.08380
  Beta virt. eigenvalues --    0.08650   0.10062   0.10322   0.10732   0.11297
  Beta virt. eigenvalues --    0.11882   0.12103   0.12981   0.13360   0.13860
  Beta virt. eigenvalues --    0.14285   0.15730   0.16476   0.18102   0.18668
  Beta virt. eigenvalues --    0.18974   0.19541   0.19773   0.20574   0.20771
  Beta virt. eigenvalues --    0.21148   0.21387   0.21937   0.22280   0.22551
  Beta virt. eigenvalues --    0.23035   0.23117   0.23682   0.23836   0.24080
  Beta virt. eigenvalues --    0.25058   0.25236   0.26129   0.26495   0.26789
  Beta virt. eigenvalues --    0.27157   0.28111   0.28724   0.28783   0.29554
  Beta virt. eigenvalues --    0.30246   0.30444   0.31748   0.32364   0.32800
  Beta virt. eigenvalues --    0.33048   0.33194   0.33755   0.34040   0.34633
  Beta virt. eigenvalues --    0.34843   0.35369   0.35984   0.36351   0.36860
  Beta virt. eigenvalues --    0.37413   0.37499   0.38036   0.38421   0.38530
  Beta virt. eigenvalues --    0.38924   0.39326   0.39903   0.40332   0.41221
  Beta virt. eigenvalues --    0.41548   0.41750   0.42070   0.42240   0.42894
  Beta virt. eigenvalues --    0.43185   0.43647   0.44732   0.45074   0.45334
  Beta virt. eigenvalues --    0.45996   0.46493   0.46998   0.47366   0.48118
  Beta virt. eigenvalues --    0.48564   0.48805   0.49208   0.49608   0.49769
  Beta virt. eigenvalues --    0.50189   0.51534   0.51716   0.53172   0.53460
  Beta virt. eigenvalues --    0.54877   0.55764   0.56948   0.57907   0.58903
  Beta virt. eigenvalues --    0.59410   0.59748   0.60575   0.61871   0.62875
  Beta virt. eigenvalues --    0.63439   0.64748   0.65153   0.65983   0.66437
  Beta virt. eigenvalues --    0.66604   0.67759   0.67842   0.68445   0.68477
  Beta virt. eigenvalues --    0.69427   0.69680   0.70106   0.70802   0.71722
  Beta virt. eigenvalues --    0.72341   0.72738   0.73579   0.73736   0.74325
  Beta virt. eigenvalues --    0.74998   0.76505   0.76618   0.77017   0.78234
  Beta virt. eigenvalues --    0.79286   0.79871   0.80475   0.80804   0.81906
  Beta virt. eigenvalues --    0.82910   0.83471   0.84172   0.84300   0.85262
  Beta virt. eigenvalues --    0.86147   0.87182   0.87693   0.88371   0.88688
  Beta virt. eigenvalues --    0.89477   0.90342   0.91667   0.92067   0.92715
  Beta virt. eigenvalues --    0.93498   0.93913   0.95378   0.98621   0.98732
  Beta virt. eigenvalues --    0.99531   1.00067   1.00485   1.01083   1.02118
  Beta virt. eigenvalues --    1.02898   1.03725   1.04310   1.04852   1.06739
  Beta virt. eigenvalues --    1.07738   1.07973   1.09490   1.10998   1.11555
  Beta virt. eigenvalues --    1.12250   1.14585   1.16774   1.17096   1.17584
  Beta virt. eigenvalues --    1.18023   1.19002   1.19527   1.19773   1.20419
  Beta virt. eigenvalues --    1.21555   1.21742   1.22377   1.23300   1.24149
  Beta virt. eigenvalues --    1.24899   1.25454   1.25758   1.26619   1.27352
  Beta virt. eigenvalues --    1.27510   1.28140   1.29072   1.30084   1.30752
  Beta virt. eigenvalues --    1.31070   1.32009   1.33267   1.34336   1.35579
  Beta virt. eigenvalues --    1.36193   1.36780   1.38638   1.39748   1.39979
  Beta virt. eigenvalues --    1.40917   1.41584   1.42514   1.43420   1.44575
  Beta virt. eigenvalues --    1.45213   1.45494   1.46259   1.48024   1.48632
  Beta virt. eigenvalues --    1.49049   1.49216   1.49859   1.51006   1.52043
  Beta virt. eigenvalues --    1.53673   1.53865   1.54921   1.55610   1.56056
  Beta virt. eigenvalues --    1.56915   1.57416   1.57966   1.58670   1.60492
  Beta virt. eigenvalues --    1.61361   1.61584   1.62303   1.63721   1.64395
  Beta virt. eigenvalues --    1.65111   1.65797   1.66331   1.67308   1.68263
  Beta virt. eigenvalues --    1.68426   1.68838   1.69126   1.69940   1.70680
  Beta virt. eigenvalues --    1.71025   1.71351   1.71870   1.73748   1.73991
  Beta virt. eigenvalues --    1.75820   1.77124   1.78204   1.79988   1.80434
  Beta virt. eigenvalues --    1.81177   1.83628   1.84325   1.84936   1.86130
  Beta virt. eigenvalues --    1.86556   1.86873   1.89836   1.91063   1.91557
  Beta virt. eigenvalues --    1.93031   1.93888   1.97144   1.98704   1.99996
  Beta virt. eigenvalues --    2.00981   2.01949   2.02617   2.03194   2.04582
  Beta virt. eigenvalues --    2.05970   2.06505   2.06779   2.07334   2.08188
  Beta virt. eigenvalues --    2.10122   2.10928   2.13070   2.13316   2.14376
  Beta virt. eigenvalues --    2.15898   2.16122   2.16451   2.18843   2.19003
  Beta virt. eigenvalues --    2.19769   2.21812   2.22623   2.23320   2.23424
  Beta virt. eigenvalues --    2.25150   2.26299   2.26904   2.29916   2.31011
  Beta virt. eigenvalues --    2.32782   2.33756   2.34851   2.37157   2.38273
  Beta virt. eigenvalues --    2.38917   2.41945   2.43043   2.44448   2.45703
  Beta virt. eigenvalues --    2.46150   2.47324   2.49912   2.50836   2.51752
  Beta virt. eigenvalues --    2.54417   2.54520   2.55697   2.56324   2.57079
  Beta virt. eigenvalues --    2.57636   2.58091   2.59361   2.60074   2.60518
  Beta virt. eigenvalues --    2.61164   2.62092   2.62434   2.63132   2.63890
  Beta virt. eigenvalues --    2.64419   2.64678   2.64979   2.65363   2.65870
  Beta virt. eigenvalues --    2.66465   2.67013   2.67251   2.67987   2.68727
  Beta virt. eigenvalues --    2.69318   2.70173   2.71724   2.72151   2.72401
  Beta virt. eigenvalues --    2.73105   2.74180   2.74504   2.75806   2.76114
  Beta virt. eigenvalues --    2.76603   2.77209   2.77521   2.78267   2.79158
  Beta virt. eigenvalues --    2.79795   2.80546   2.81219   2.81649   2.82199
  Beta virt. eigenvalues --    2.82652   2.83380   2.83430   2.83957   2.84104
  Beta virt. eigenvalues --    2.85057   2.85189   2.85912   2.86626   2.87252
  Beta virt. eigenvalues --    2.88381   2.88803   2.89984   2.91458   2.93060
  Beta virt. eigenvalues --    2.94444   2.95873   2.96869   2.97248   2.97815
  Beta virt. eigenvalues --    2.99813   3.01391   3.01611   3.03318   3.03785
  Beta virt. eigenvalues --    3.04147   3.05159   3.05821   3.06680   3.06934
  Beta virt. eigenvalues --    3.07951   3.09498   3.10846   3.11560   3.12261
  Beta virt. eigenvalues --    3.12589   3.12859   3.13426   3.13656   3.14550
  Beta virt. eigenvalues --    3.14757   3.15418   3.16136   3.16486   3.16816
  Beta virt. eigenvalues --    3.17752   3.18707   3.18869   3.19455   3.20555
  Beta virt. eigenvalues --    3.21094   3.21364   3.23616   3.24438   3.25024
  Beta virt. eigenvalues --    3.25872   3.26082   3.26460   3.26915   3.27865
  Beta virt. eigenvalues --    3.28984   3.29807   3.30555   3.31021   3.31645
  Beta virt. eigenvalues --    3.32527   3.32854   3.33832   3.34580   3.35034
  Beta virt. eigenvalues --    3.35988   3.36351   3.37628   3.37840   3.38006
  Beta virt. eigenvalues --    3.38445   3.39980   3.40265   3.42129   3.42563
  Beta virt. eigenvalues --    3.42892   3.43403   3.44337   3.44524   3.45159
  Beta virt. eigenvalues --    3.45440   3.45662   3.46035   3.46640   3.47778
  Beta virt. eigenvalues --    3.47843   3.49130   3.49966   3.50093   3.51269
  Beta virt. eigenvalues --    3.52265   3.52835   3.53322   3.54338   3.55153
  Beta virt. eigenvalues --    3.55647   3.57010   3.57686   3.59072   3.59647
  Beta virt. eigenvalues --    3.61278   3.61592   3.63737   3.64633   3.66167
  Beta virt. eigenvalues --    3.66398   3.68193   3.69149   3.70536   3.74377
  Beta virt. eigenvalues --    3.74590   3.76461   3.77844   3.79722   3.81281
  Beta virt. eigenvalues --    3.82886   3.83069   3.84975   3.88170   3.89679
  Beta virt. eigenvalues --    3.90750   3.91964   3.92201   3.93613   3.94496
  Beta virt. eigenvalues --    3.95338   3.95934   3.97178   3.97984   4.00847
  Beta virt. eigenvalues --    4.01035   4.02163   4.03602   4.03801   4.05064
  Beta virt. eigenvalues --    4.09320   4.09523   4.10701   4.11175   4.11324
  Beta virt. eigenvalues --    4.13727   4.15360   4.16983   4.17769   4.17924
  Beta virt. eigenvalues --    4.19756   4.20178   4.20481   4.20974   4.21402
  Beta virt. eigenvalues --    4.22250   4.22675   4.23435   4.24622   4.25000
  Beta virt. eigenvalues --    4.26149   4.27052   4.28389   4.28891   4.30048
  Beta virt. eigenvalues --    4.31831   4.32383   4.34398   4.36068   4.39278
  Beta virt. eigenvalues --    4.40365   4.43041   4.44340   4.45566   4.48291
  Beta virt. eigenvalues --    4.52058   4.56033   4.58529   4.61232   4.61806
  Beta virt. eigenvalues --    4.63853   4.65419   4.67601   4.68119   4.69196
  Beta virt. eigenvalues --    4.69560   4.71184   4.71897   4.74677   4.75108
  Beta virt. eigenvalues --    4.79456   4.83838   4.85229   4.88346   4.89896
  Beta virt. eigenvalues --    4.90664   4.94475   4.95447   4.99384   5.03121
  Beta virt. eigenvalues --    5.03938   5.07157   5.11705   5.19109   5.21151
  Beta virt. eigenvalues --    5.21398   5.21628   5.23436   5.30750   5.34526
  Beta virt. eigenvalues --    5.37448   5.38146   5.41499   5.43330   5.44307
  Beta virt. eigenvalues --    5.48304   5.52469   5.62161   5.65984   5.67754
  Beta virt. eigenvalues --    5.78163  21.92058  21.98171  22.20821  22.40456
  Beta virt. eigenvalues --   22.53019  22.55530  22.56926  22.57039  22.62781
  Beta virt. eigenvalues --   22.65786  22.68761  22.70240  22.75163  22.80315
  Beta virt. eigenvalues --   22.80686  22.88679  23.12997  23.18319  23.34599
          Condensed to atoms (all electrons):
               1          2          3          4          5          6
     1  C    5.832237   0.291983  -0.073165   0.012709  -0.002057   0.009339
     2  C    0.291983   4.881740   0.436695  -0.022936  -0.063546  -0.023329
     3  C   -0.073165   0.436695   5.034950   0.458840  -0.005707  -0.054719
     4  C    0.012709  -0.022936   0.458840   4.924167   0.468945  -0.023961
     5  C   -0.002057  -0.063546  -0.005707   0.468945   4.914418   0.477360
     6  C    0.009339  -0.023329  -0.054719  -0.023961   0.477360   4.884935
     7  C   -0.073211   0.446361  -0.009115  -0.056544  -0.007319   0.487896
     8  C    0.288723  -0.050335   0.001234  -0.000243  -0.000040  -0.000573
     9  C   -0.075719   0.004368   0.004443  -0.001230   0.000476  -0.000267
    10  C    0.015271  -0.000775  -0.001258  -0.000455   0.000028   0.000029
    11  C   -0.002571   0.000271   0.000370   0.000013   0.000002  -0.000005
    12  C   -0.000280   0.000031  -0.000015  -0.000000  -0.000000  -0.000000
    13  C   -0.000009   0.000003  -0.000001  -0.000000   0.000000  -0.000000
    14  C    0.000000  -0.000000  -0.000000   0.000000  -0.000000   0.000000
    15  C   -0.000000   0.000000   0.000000  -0.000000   0.000000  -0.000000
    16  C    0.000000  -0.000000   0.000000   0.000000  -0.000000   0.000000
    17  C   -0.000014   0.000002   0.000001  -0.000000   0.000000  -0.000000
    18  C    0.010689  -0.000572  -0.000309   0.000017  -0.000003   0.000003
    19  C   -0.070537   0.000553   0.001532  -0.000031   0.000010  -0.000013
    20  H   -0.011502  -0.039085   0.426902  -0.053078   0.008174  -0.001757
    21  H   -0.000362   0.008839  -0.049048   0.421930  -0.047078   0.008287
    22  H    0.000121  -0.000978   0.008059  -0.046165   0.418422  -0.045034
    23  H   -0.000652   0.011439  -0.002192   0.009525  -0.050168   0.425342
    24  H    0.000542  -0.050803   0.010994  -0.002268   0.009493  -0.053819
    25  H   -0.012030   0.001087   0.001525  -0.000055   0.000097  -0.000095
    26  H   -0.000338   0.000001  -0.000024  -0.000001  -0.000002   0.000002
    27  H   -0.000003   0.000001  -0.000000  -0.000000   0.000000  -0.000000
    28  H    0.000000   0.000000  -0.000000   0.000000  -0.000000   0.000000
    29  H    0.000000   0.000000   0.000000  -0.000000  -0.000000   0.000000
    30  H    0.000000   0.000000  -0.000000   0.000000  -0.000000   0.000000
    31  H   -0.000005   0.000002   0.000001  -0.000001   0.000000  -0.000000
    32  H   -0.000619   0.000046  -0.000008  -0.000000   0.000000  -0.000000
    33  H    0.000455  -0.000236  -0.000074   0.000002  -0.000000   0.000005
               7          8          9         10         11         12
     1  C   -0.073211   0.288723  -0.075719   0.015271  -0.002571  -0.000280
     2  C    0.446361  -0.050335   0.004368  -0.000775   0.000271   0.000031
     3  C   -0.009115   0.001234   0.004443  -0.001258   0.000370  -0.000015
     4  C   -0.056544  -0.000243  -0.001230  -0.000455   0.000013  -0.000000
     5  C   -0.007319  -0.000040   0.000476   0.000028   0.000002  -0.000000
     6  C    0.487896  -0.000573  -0.000267   0.000029  -0.000005  -0.000000
     7  C    5.005914   0.001259   0.001177   0.000051  -0.000005  -0.000000
     8  C    0.001259   4.909821   0.415523   0.000510  -0.073479  -0.002267
     9  C    0.001177   0.415523   5.088553   0.403589   0.009062   0.007367
    10  C    0.000051   0.000510   0.403589   5.121298   0.419542  -0.103674
    11  C   -0.000005  -0.073479   0.009062   0.419542   5.057599   0.303411
    12  C   -0.000000  -0.002267   0.007367  -0.103674   0.303411   4.998894
    13  C    0.000000   0.000175  -0.000816   0.003831  -0.105892   0.465148
    14  C   -0.000000   0.000017   0.000014  -0.001331   0.005064  -0.019796
    15  C    0.000000  -0.000003   0.000001   0.000149  -0.002824  -0.061023
    16  C   -0.000000  -0.000019   0.000008   0.000424   0.004990  -0.020294
    17  C    0.000000   0.000194   0.000926   0.009043  -0.106215   0.466896
    18  C   -0.000012   0.005802  -0.060954  -0.014218   0.426761  -0.101996
    19  C    0.000933   0.415146  -0.008853  -0.059538   0.006950   0.006904
    20  H    0.009946   0.001111   0.001499  -0.000155   0.000053  -0.000017
    21  H   -0.001224   0.000004  -0.000030  -0.000001  -0.000002   0.000000
    22  H    0.007623  -0.000007   0.000007   0.000000   0.000000   0.000000
    23  H   -0.052597   0.000056  -0.000011  -0.000000   0.000000  -0.000000
    24  H    0.428917  -0.000355  -0.000039   0.000006  -0.000000   0.000000
    25  H    0.001681  -0.040940   0.432628  -0.055776   0.009184  -0.000062
    26  H    0.000007   0.009467  -0.056658   0.429225  -0.049844  -0.006803
    27  H    0.000000  -0.000025  -0.000166   0.000660  -0.004976  -0.048384
    28  H   -0.000000   0.000000  -0.000001   0.000040  -0.000186   0.009129
    29  H   -0.000000  -0.000000   0.000000  -0.000007   0.000136  -0.000305
    30  H   -0.000000   0.000001  -0.000004  -0.000023  -0.000168   0.009233
    31  H    0.000000  -0.000059   0.000321   0.004933  -0.005426  -0.048949
    32  H   -0.000001   0.011948  -0.002924   0.012893  -0.053626  -0.005679
    33  H   -0.000007  -0.053872   0.011461  -0.002402   0.010500  -0.000231
              13         14         15         16         17         18
     1  C   -0.000009   0.000000  -0.000000   0.000000  -0.000014   0.010689
     2  C    0.000003  -0.000000   0.000000  -0.000000   0.000002  -0.000572
     3  C   -0.000001  -0.000000   0.000000   0.000000   0.000001  -0.000309
     4  C   -0.000000   0.000000  -0.000000   0.000000  -0.000000   0.000017
     5  C    0.000000  -0.000000   0.000000  -0.000000   0.000000  -0.000003
     6  C   -0.000000   0.000000  -0.000000   0.000000  -0.000000   0.000003
     7  C    0.000000  -0.000000   0.000000  -0.000000   0.000000  -0.000012
     8  C    0.000175   0.000017  -0.000003  -0.000019   0.000194   0.005802
     9  C   -0.000816   0.000014   0.000001   0.000008   0.000926  -0.060954
    10  C    0.003831  -0.001331   0.000149   0.000424   0.009043  -0.014218
    11  C   -0.105892   0.005064  -0.002824   0.004990  -0.106215   0.426761
    12  C    0.465148  -0.019796  -0.061023  -0.020294   0.466896  -0.101996
    13  C    5.044959   0.472083  -0.014964  -0.047743  -0.020746   0.008633
    14  C    0.472083   4.906310   0.486280  -0.025998  -0.047626   0.000824
    15  C   -0.014964   0.486280   4.887184   0.486697  -0.015336   0.000068
    16  C   -0.047743  -0.025998   0.486697   4.904804   0.473852  -0.001312
    17  C   -0.020746  -0.047626  -0.015336   0.473852   5.041726   0.004044
    18  C    0.008633   0.000824   0.000068  -0.001312   0.004044   5.081363
    19  C    0.000565  -0.000076  -0.000005   0.000077  -0.000994   0.432207
    20  H    0.000000  -0.000000   0.000000  -0.000000   0.000003  -0.000098
    21  H   -0.000000   0.000000  -0.000000  -0.000000  -0.000000   0.000002
    22  H    0.000000  -0.000000   0.000000  -0.000000  -0.000000  -0.000000
    23  H   -0.000000   0.000000  -0.000000   0.000000   0.000000  -0.000000
    24  H    0.000000   0.000000   0.000000  -0.000000   0.000000   0.000006
    25  H    0.000034  -0.000001   0.000000  -0.000003  -0.000042  -0.002218
    26  H    0.000535  -0.000189  -0.000076   0.000232   0.005208   0.012011
    27  H    0.422277  -0.051996   0.009058  -0.002167   0.011698   0.004868
    28  H   -0.047524   0.421955  -0.047470   0.008954  -0.001671  -0.000024
    29  H    0.007410  -0.045296   0.417939  -0.045274   0.007389  -0.000007
    30  H   -0.001734   0.009006  -0.047470   0.422170  -0.047958   0.000044
    31  H    0.012008  -0.002271   0.009194  -0.052350   0.422489   0.000496
    32  H    0.005132   0.000312  -0.000095  -0.000161   0.000508   0.432753
    33  H   -0.000036  -0.000005   0.000000  -0.000001   0.000035  -0.057605
              19         20         21         22         23         24
     1  C   -0.070537  -0.011502  -0.000362   0.000121  -0.000652   0.000542
     2  C    0.000553  -0.039085   0.008839  -0.000978   0.011439  -0.050803
     3  C    0.001532   0.426902  -0.049048   0.008059  -0.002192   0.010994
     4  C   -0.000031  -0.053078   0.421930  -0.046165   0.009525  -0.002268
     5  C    0.000010   0.008174  -0.047078   0.418422  -0.050168   0.009493
     6  C   -0.000013  -0.001757   0.008287  -0.045034   0.425342  -0.053819
     7  C    0.000933   0.009946  -0.001224   0.007623  -0.052597   0.428917
     8  C    0.415146   0.001111   0.000004  -0.000007   0.000056  -0.000355
     9  C   -0.008853   0.001499  -0.000030   0.000007  -0.000011  -0.000039
    10  C   -0.059538  -0.000155  -0.000001   0.000000  -0.000000   0.000006
    11  C    0.006950   0.000053  -0.000002   0.000000   0.000000  -0.000000
    12  C    0.006904  -0.000017   0.000000   0.000000  -0.000000   0.000000
    13  C    0.000565   0.000000  -0.000000   0.000000  -0.000000   0.000000
    14  C   -0.000076  -0.000000   0.000000  -0.000000   0.000000   0.000000
    15  C   -0.000005   0.000000  -0.000000   0.000000  -0.000000   0.000000
    16  C    0.000077  -0.000000  -0.000000  -0.000000   0.000000  -0.000000
    17  C   -0.000994   0.000003  -0.000000  -0.000000   0.000000   0.000000
    18  C    0.432207  -0.000098   0.000002  -0.000000  -0.000000   0.000006
    19  C    5.062349   0.001846   0.000007  -0.000000  -0.000000  -0.000015
    20  H    0.001846   0.534819  -0.006013  -0.000267   0.000063  -0.000148
    21  H    0.000007  -0.006013   0.559915  -0.006797  -0.000300   0.000085
    22  H   -0.000000  -0.000267  -0.006797   0.561000  -0.006865  -0.000287
    23  H   -0.000000   0.000063  -0.000300  -0.006865   0.563520  -0.007357
    24  H   -0.000015  -0.000148   0.000085  -0.000287  -0.007357   0.551078
    25  H    0.010847  -0.000145  -0.000008   0.000000  -0.000004   0.000004
    26  H   -0.002054  -0.000005   0.000000  -0.000000   0.000000  -0.000000
    27  H    0.000149  -0.000000  -0.000000   0.000000  -0.000000   0.000000
    28  H   -0.000002   0.000000  -0.000000  -0.000000   0.000000  -0.000000
    29  H    0.000000  -0.000000   0.000000   0.000000  -0.000000   0.000000
    30  H   -0.000001  -0.000000   0.000000   0.000000  -0.000000   0.000000
    31  H   -0.000153   0.000004  -0.000000   0.000000  -0.000000   0.000000
    32  H   -0.059939  -0.000003   0.000000   0.000000  -0.000000   0.000000
    33  H    0.435871   0.000012  -0.000000  -0.000000   0.000000  -0.000006
              25         26         27         28         29         30
     1  C   -0.012030  -0.000338  -0.000003   0.000000   0.000000   0.000000
     2  C    0.001087   0.000001   0.000001   0.000000   0.000000   0.000000
     3  C    0.001525  -0.000024  -0.000000  -0.000000   0.000000  -0.000000
     4  C   -0.000055  -0.000001  -0.000000   0.000000  -0.000000   0.000000
     5  C    0.000097  -0.000002   0.000000  -0.000000  -0.000000  -0.000000
     6  C   -0.000095   0.000002  -0.000000   0.000000   0.000000   0.000000
     7  C    0.001681   0.000007   0.000000  -0.000000  -0.000000  -0.000000
     8  C   -0.040940   0.009467  -0.000025   0.000000  -0.000000   0.000001
     9  C    0.432628  -0.056658  -0.000166  -0.000001   0.000000  -0.000004
    10  C   -0.055776   0.429225   0.000660   0.000040  -0.000007  -0.000023
    11  C    0.009184  -0.049844  -0.004976  -0.000186   0.000136  -0.000168
    12  C   -0.000062  -0.006803  -0.048384   0.009129  -0.000305   0.009233
    13  C    0.000034   0.000535   0.422277  -0.047524   0.007410  -0.001734
    14  C   -0.000001  -0.000189  -0.051996   0.421955  -0.045296   0.009006
    15  C    0.000000  -0.000076   0.009058  -0.047470   0.417939  -0.047470
    16  C   -0.000003   0.000232  -0.002167   0.008954  -0.045274   0.422170
    17  C   -0.000042   0.005208   0.011698  -0.001671   0.007389  -0.047958
    18  C   -0.002218   0.012011   0.004868  -0.000024  -0.000007   0.000044
    19  C    0.010847  -0.002054   0.000149  -0.000002   0.000000  -0.000001
    20  H   -0.000145  -0.000005  -0.000000   0.000000  -0.000000  -0.000000
    21  H   -0.000008   0.000000  -0.000000  -0.000000   0.000000   0.000000
    22  H    0.000000  -0.000000   0.000000  -0.000000   0.000000   0.000000
    23  H   -0.000004   0.000000  -0.000000   0.000000  -0.000000  -0.000000
    24  H    0.000004  -0.000000   0.000000  -0.000000   0.000000   0.000000
    25  H    0.532842  -0.006248   0.000003   0.000000  -0.000000   0.000000
    26  H   -0.006248   0.544244   0.000032   0.000004  -0.000001   0.000037
    27  H    0.000003   0.000032   0.545598  -0.006950  -0.000287   0.000072
    28  H    0.000000   0.000004  -0.006950   0.560771  -0.006857  -0.000304
    29  H   -0.000000  -0.000001  -0.000287  -0.006857   0.562582  -0.006863
    30  H    0.000000   0.000037   0.000072  -0.000304  -0.006863   0.561300
    31  H    0.000035   0.000038  -0.000239   0.000073  -0.000289  -0.007035
    32  H    0.000053  -0.000241   0.000046   0.000038  -0.000001   0.000005
    33  H   -0.000159   0.000076   0.000033   0.000000  -0.000000   0.000000
              31         32         33
     1  C   -0.000005  -0.000619   0.000455
     2  C    0.000002   0.000046  -0.000236
     3  C    0.000001  -0.000008  -0.000074
     4  C   -0.000001  -0.000000   0.000002
     5  C    0.000000   0.000000  -0.000000
[...]
 084,0.00000210,0.00002148,0.00002140,-0.00001354,0.00067265,-0.0003278
 9,0.00026626,0.16167030,0.00005440,0.00001280,-0.00000198,-0.00001903,
 -0.00000859,-0.00001158,0.00000655,-0.00000324,0.00000511,-0.00000234,
 0.00000095,-0.00000136,0.00000628,-0.00000189,0.00000339,-0.00000233,-
 0.00000121,-0.00000260,0.00000787,-0.00000108,0.00000172,-0.00006067,-
 0.00000012,0.00001615,0.00007444,0.00000115,-0.00005652,0.00000558,-0.
 00013013,-0.00000072,0.00000658,0.00020371,0.00003852,-0.00054915,0.00
 640845,0.00251408,-0.00105008,0.00266631,-0.00072209,0.06647607,-0.087
 10873,0.08911406,0.00907016,-0.00247773,0.00765481,-0.00129213,0.00476
 215,0.00465944,-0.00056595,-0.00049501,-0.00033869,0.00003877,-0.00007
 911,-0.00001961,0.00003457,0.00001460,0.00002344,-0.00000127,0.0000022
 3,0.00000035,0.00000026,-0.00000030,0.00000177,0.00000085,0.00000049,0
 .00000103,0.00000131,0.00000122,0.00000029,-0.00000137,0.00000125,0.00
 000043,0.00000159,0.00001632,-0.00000091,0.00000627,-0.00001630,-0.000
 02590,0.00003160,-0.00279000,-0.00210857,-0.07245018,0.08257263,0.0000
 0682,-0.00003224,-0.00000161,0.00002385,0.00001156,0.00001433,-0.00001
 110,0.00000313,-0.00000725,0.00000322,-0.00000344,0.00000087,-0.000010
 63,0.00000168,-0.00000607,0.00000281,0.00000126,0.00000227,-0.00000991
 ,0.00000276,-0.00000728,-0.00002893,0.00001495,0.00000688,0.00002207,0
 .00000888,-0.00000399,0.00006159,-0.00004237,0.00002487,0.00022484,0.0
 0001340,0.00016421,0.00141364,0.00250659,0.00292697,0.00365159,-0.0021
 5804,0.00582654,-0.11255356,0.08871838,-0.18780970,-0.01727955,0.00947
 279,-0.01382094,0.00362322,0.00461208,-0.00140177,0.00081413,-0.000351
 11,-0.00013584,-0.00004230,-0.00001194,-0.00002243,0.00001857,0.000005
 20,-0.00000437,0.00000147,-0.00000238,0.00000223,-0.00000078,0.0000019
 0,-0.00000204,-0.00000209,0.00000025,-0.00000105,-0.00000352,-0.000000
 93,0.00000030,0.00000231,-0.00000038,0.00000129,-0.00000115,0.00000727
 ,-0.00000097,0.00001049,0.00000083,-0.00000759,-0.00036877,-0.00199438
 ,-0.00026712,0.12102626,-0.09894393,0.19579265,-0.00000027,-0.00003319
 ,-0.00000566,0.00003143,0.00001252,0.00002057,-0.00001283,0.00000573,-
 0.00001002,0.00000346,-0.00000510,0.00000338,-0.00001438,0.00000279,-0
 .00000860,0.00000390,0.00000185,0.00000321,-0.00001376,0.00000432,-0.0
 0000856,-0.00001227,0.00001891,0.00002127,0.00002231,-0.00001475,0.000
 00369,-0.00006132,-0.00002412,-0.00002205,0.00008469,-0.00003407,-0.00
 000006,0.00064094,0.00004188,-0.00022301,0.00129055,-0.00102886,0.0022
 9822,-0.00855476,0.00080304,-0.00074858,-0.33190939,-0.00537068,0.0319
 6688,-0.01434449,-0.00175637,0.00441878,0.00010346,0.00201456,-0.00310
 401,-0.00002902,0.00001026,0.00001916,-0.00000406,0.00001482,-0.000012
 23,0.00000283,-0.00000506,0.00000305,-0.00000101,0.00000252,-0.0000033
 8,-0.00000316,0.00000003,-0.00000165,-0.00000451,-0.00000175,0.0000002
 4,0.00000330,-0.00000100,0.00000102,-0.00000876,-0.00000197,-0.0000033
 5,0.00001911,0.00003297,0.00003025,-0.00050779,0.00010307,-0.00010172,
 0.00073096,-0.00033941,0.00033011,0.35257931,-0.00000401,0.00000945,-0
 .00001905,0.00000273,-0.00000100,0.00000560,0.00000008,-0.00000011,-0.
 00000197,0.00000083,-0.00000099,-0.00000091,-0.00000115,0.00000005,-0.
 00000141,0.00000136,-0.00000103,0.00000051,-0.00000268,-0.00000075,-0.
 00000083,0.00001917,0.00001462,0.00014522,0.00016222,-0.00002080,-0.00
 012522,-0.00026045,0.00002918,0.00002298,-0.00002071,-0.00070719,-0.00
 032875,0.00007479,-0.00127847,0.00025330,-0.00065067,0.00480431,0.0050
 7435,-0.01377154,0.00211758,0.00019207,-0.00536001,-0.03992223,0.01169
 278,0.01283151,0.00266002,-0.00278953,0.00159401,0.00492888,0.00468913
 ,0.00025442,0.00004133,-0.00003463,-0.00018647,-0.00002596,-0.00009057
 ,-0.00000073,0.00000200,0.00000095,-0.00000007,0.00000066,0.00000054,-
 0.00000013,0.00000058,0.00000034,-0.00000039,0.00000033,0.00000036,-0.
 00000019,0.00000058,0.00000074,-0.00000619,-0.00001015,-0.00000091,-0.
 00002728,0.00001278,-0.00005372,-0.00067009,0.00011185,0.00016198,0.00
 004085,-0.00257526,-0.00184861,0.00561998,0.03224170,-0.00000193,0.000
 00871,-0.00000040,-0.00000195,-0.00000254,-0.00000095,0.00000341,0.000
 00045,-0.00000019,-0.00000025,-0.00000025,-0.00000024,0.00000144,-0.00
 000034,0.00000031,-0.00000006,-0.00000101,0.00000005,0.00000040,-0.000
 00115,0.00000071,0.00001450,0.00002366,0.00010761,0.00015079,-0.000002
 48,-0.00004394,-0.00017096,-0.00004052,-0.00004904,0.00000206,-0.00045
 096,0.00001485,-0.00021710,-0.00001079,-0.00120896,0.00143137,0.005276
 45,-0.00230220,0.02669682,-0.00093153,0.00129039,0.03196965,0.01160580
 ,-0.05762104,-0.02302495,-0.00178174,0.00652712,-0.00224495,0.00484005
 ,-0.00123116,0.00016551,-0.00003569,-0.00009468,-0.00015810,-0.0000114
 8,-0.00000774,-0.00000046,0.00000139,-0.00000012,0.00000040,0.00000005
 ,0.00000076,0.00000011,0.00000024,0.00000044,0.00000035,0.00000038,0.0
 0000026,-0.00000077,0.00000037,0.00000033,0.00000107,-0.00000531,-0.00
 000083,0.00000555,0.00003661,0.00001914,0.00125331,0.00007022,-0.00006
 008,-0.00047343,-0.00178219,-0.00025213,-0.03462911,-0.01507544,0.0549
 6387,-0.00001111,-0.00005011,-0.00001037,0.00004724,0.00001849,0.00002
 967,-0.00002484,0.00000211,-0.00001334,0.00000802,-0.00000586,0.000002
 17,-0.00001954,0.00000360,-0.00001197,0.00000531,0.00000230,0.00000434
 ,-0.00001838,0.00000450,-0.00001074,-0.00001608,0.00001278,0.00000661,
 -0.00002349,0.00001032,-0.00003354,-0.00001248,0.00005794,0.00006145,0
 .00019807,-0.00052479,0.00132033,-0.00548470,0.00050698,-0.00033910,-0
 .00099662,0.00036866,-0.00065680,-0.00169391,0.00184456,-0.00283628,0.
 01176269,0.00854583,-0.01636075,-0.10229169,-0.04569968,0.08819139,-0.
 00793738,-0.01451950,0.02684371,-0.00046718,-0.00003875,-0.00010172,0.
 00000455,0.00007917,0.00010564,0.00000390,-0.00000390,0.00000543,-0.00
 000434,0.00000422,-0.00000455,-0.00000272,0.00000010,-0.00000122,-0.00
 000418,-0.00000102,-0.00000011,0.00000388,-0.00000024,0.00000060,-0.00
 002610,-0.00000382,-0.00000171,0.00000695,-0.00003569,-0.00001724,0.00
 008038,-0.00007717,0.00006469,0.00036685,0.00044157,-0.00085597,0.0007
 2884,-0.00031669,0.00032619,0.10517389,-0.00005252,-0.00003577,0.00000
 540,0.00002104,0.00000983,0.00001094,-0.00000587,0.00000099,-0.0000079
 3,0.00000262,-0.00000293,-0.00000004,-0.00000734,0.00000073,-0.0000050
 8,0.00000201,0.00000052,0.00000174,-0.00000765,0.00000057,-0.00000400,
 0.00006178,0.00002114,0.00000817,-0.00003151,0.00001725,0.00002624,-0.
 00003805,-0.00007948,-0.00000738,0.00000312,0.00018126,0.00010176,0.00
 057382,0.00645698,0.00232854,0.00045091,-0.00045565,-0.00049625,0.0020
 5835,0.00491268,0.00414349,-0.00649632,-0.00252008,0.00885780,-0.04543
 726,-0.09214068,0.10675720,0.00038157,0.00202617,0.00026029,-0.0000221
 9,-0.00012988,-0.00000318,-0.00008298,0.00000346,-0.00003423,0.0000006
 5,0.00000019,0.00000247,-0.00000091,0.00000247,-0.00000065,-0.00000163
 ,0.00000060,-0.00000026,-0.00000223,-0.00000031,0.00000055,0.00000129,
 0.00000019,0.00000117,-0.00000877,0.00000196,-0.00000081,-0.00004731,0
 .00000491,0.00003300,-0.00007983,-0.00092463,-0.00048877,-0.00030732,-
 0.00006748,0.00051940,0.00007360,-0.00257284,-0.00181103,0.04937228,0.
 08807578,-0.00000327,0.00003955,0.00000418,-0.00003712,-0.00001649,-0.
 00002232,0.00001943,-0.00000437,0.00000932,-0.00000536,0.00000439,-0.0
 0000253,0.00001585,-0.00000340,0.00000913,-0.00000434,-0.00000259,-0.0
 0000377,0.00001503,-0.00000438,0.00000875,0.00003259,-0.00001751,-0.00
 001073,-0.00000933,0.00000238,0.00000942,0.00004026,-0.00002185,-0.000
 04893,-0.00023382,0.00012820,-0.00009339,0.00044783,0.00236790,0.00334
 276,-0.00059873,-0.00048536,0.00020687,-0.00377617,0.00410342,0.000118
 75,0.01086055,0.00843640,-0.01404212,0.08850744,0.10643201,-0.23505506
 ,-0.00032123,0.00103973,0.00035486,0.00005608,-0.00003302,0.00006154,-
 0.00002703,-0.00001100,-0.00002024,-0.00000340,0.00000505,-0.00000253,
 0.00000219,-0.00000241,0.00000438,0.00000268,0.00000030,0.00000176,0.0
 0000402,0.00000166,0.00000013,-0.00000371,0.00000099,-0.00000032,0.000
 01036,0.00000175,0.00000264,-0.00003998,-0.00000405,-0.00000163,0.0000
 4354,-0.00049097,-0.00030237,0.00057437,0.00046521,-0.00073698,-0.0004
 7595,-0.00182444,-0.00025032,-0.09533210,-0.11810001,0.24672708,-0.000
 03685,0.00003025,-0.00000125,-0.00002801,-0.00001360,-0.00002069,0.000
 01298,-0.00000875,0.00000998,-0.00000239,0.00000768,-0.00000585,0.0000
 1634,-0.00000290,0.00001038,-0.00000269,-0.00000183,-0.00000309,0.0000
 1280,-0.00000532,0.00001079,0.00002704,0.00001325,-0.00008957,-0.00018
 105,0.00010498,0.00007758,-0.00087555,-0.00080696,0.00043022,0.0001742
 3,-0.00038700,0.00022396,0.01046588,-0.00522832,0.00851666,-0.00034263
 ,-0.00130023,0.00266997,-0.00047166,-0.00036379,0.00074659,-0.00517192
 ,-0.00070604,0.00220092,-0.01408182,0.01387897,-0.02362228,-0.15175303
 ,0.06984196,-0.11023888,0.00020856,0.00001019,-0.00004625,0.00004063,-
 0.00001472,-0.00006115,-0.00000487,0.00000830,-0.00000384,0.00000208,-
 0.00000343,0.00000427,0.00000392,0.00000021,0.00000145,0.00000486,0.00
 000153,-0.00000016,-0.00000336,0.00000105,-0.00000110,0.00001454,-0.00
 007024,0.00001279,-0.00118041,-0.00098270,0.00032969,0.00046954,-0.000
 33926,0.00056018,0.00003737,0.00000942,-0.00010094,-0.00076703,0.00065
 674,-0.00109403,0.00066886,-0.00035841,0.00024539,0.16271950,0.0000377
 6,0.00000387,-0.00007262,-0.00000564,-0.00000333,0.00000703,0.00000451
 ,-0.00000457,-0.00000264,0.00000162,-0.00000320,-0.00000865,0.00000121
 ,-0.00000119,-0.00000015,0.00000106,0.00000015,0.00000134,-0.00000138,
 -0.00000698,0.00000186,-0.00001494,-0.00001392,0.00017545,0.00022777,-
 0.00008714,-0.00059948,-0.00086451,0.00004195,0.00118430,-0.00044255,-
 0.00239530,-0.00161476,0.00989872,-0.00177610,0.00846109,-0.00184776,0
 .00372788,0.00386877,-0.00020893,-0.00036571,-0.00032132,-0.00030416,0
 .00601910,0.00271312,-0.00173692,0.00327504,-0.00095535,0.06947767,-0.
 09155056,0.09192079,0.00042800,0.00016241,-0.00027483,-0.00013770,0.00
 006125,-0.00022799,-0.00000298,0.00001670,0.00000323,0.00000053,0.0000
 0155,0.00000353,0.00000137,0.00000145,0.00000178,0.00000152,0.00000161
 ,0.00000093,-0.00000196,0.00000131,0.00000059,-0.00004017,0.00000696,0
 .00001601,-0.00098564,-0.00050283,-0.00046670,0.00049695,0.00014787,0.
 00056950,0.00000701,-0.00092019,-0.00050415,-0.00012436,0.00013766,0.0
 0004345,0.00002081,-0.00278646,-0.00201870,-0.07395122,0.08690129,0.00
 007125,0.00003418,-0.00000838,0.00001437,-0.00000908,0.00002056,0.0000
 0391,0.00001221,-0.00000986,-0.00000050,-0.00001103,0.00000813,-0.0000
 1437,0.00000193,-0.00000957,0.00000339,0.00000055,0.00000172,-0.000010
 10,0.00000298,-0.00001091,-0.00006463,0.00011069,0.00037738,0.00064698
 ,-0.00019905,0.00000837,-0.00032820,-0.00040040,0.00000202,-0.00208718
 ,-0.00165638,-0.00032890,-0.01575112,0.01055440,-0.01400362,0.00334889
 ,0.00399294,-0.00180725,0.00096885,-0.00018867,-0.00018659,0.00130073,
 0.00251333,0.00311580,0.00336012,-0.00201807,0.00577141,-0.10968936,0.
 09077335,-0.18534114,0.00080966,-0.00012848,-0.00050129,-0.00048108,0.
 00004025,-0.00010111,0.00000313,-0.00000307,0.00000719,0.00000045,0.00
 000347,-0.00000131,-0.00000385,0.00000050,-0.00000060,-0.00000487,-0.0
 0000119,0.00000092,0.00000055,-0.00000122,0.00000234,-0.00000059,-0.00
 001670,-0.00000810,-0.00024489,0.00028883,0.00062095,-0.00087569,0.000
 63375,-0.00074040,-0.00012182,-0.00050229,-0.00026326,0.00025954,0.000
 01707,0.00017226,-0.00039124,-0.00207457,-0.00025836,0.11927846,-0.101
 81300,0.19339082,-0.00012368,0.00002907,-0.00112582,-0.00030944,-0.000
 12015,0.00010214,-0.00000428,-0.00004334,0.00003436,-0.00002134,-0.000
 00321,0.00000433,-0.00002476,0.00000737,-0.00001606,-0.00001726,-0.000
 01286,-0.00000255,-0.00003373,0.00010075,-0.00006961,-0.00490749,-0.00
 019506,0.00234184,-0.00032281,0.00006037,0.00060708,-0.00051998,0.0002
 4496,0.00294799,0.01060163,0.00184829,0.00974130,0.00019262,0.00030468
 ,0.00032527,-0.00090604,0.00058352,0.00066597,-0.00020082,-0.00013495,
 0.00004627,0.00000326,0.00001573,-0.00013629,0.00007326,0.00002326,-0.
 00003938,0.00019589,-0.00000304,-0.00003963,-0.15117543,-0.02634914,-0
 .12752472,-0.01482959,-0.00480413,-0.02690973,0.00000950,-0.00000138,0
 .00000591,-0.00000654,0.00000528,-0.00001079,-0.00000527,0.00000173,-0
 .00000231,-0.00001730,-0.00000492,-0.00000824,0.00000379,-0.00000696,0
 .00000672,0.00002254,0.00001727,-0.00009630,0.00049186,0.00012707,0.00
 063253,-0.00121384,0.00083445,0.00066402,0.00001580,0.00005318,0.00003
 625,0.00001219,0.00001506,-0.00000571,0.00002287,-0.00000995,-0.000018
 07,0.00000230,0.00005032,-0.00001864,0.16239314,0.00007854,0.00034407,
 -0.00019881,0.00004929,-0.00038042,0.00009131,0.00000390,0.00001945,-0
 .00001885,0.00003000,0.00001072,0.00002507,-0.00001996,-0.00000308,-0.
 00000810,-0.00000609,-0.00001157,0.00004149,-0.00009726,0.00001309,-0.
 00004101,-0.00021932,0.00808906,-0.00129084,-0.00023455,-0.00045141,0.
 00029346,0.00045987,0.00511999,-0.00099750,-0.00359498,0.00308897,-0.0
 0183042,0.00116817,-0.00297984,0.00057194,0.00075273,0.00030476,-0.001
 13891,-0.00033613,-0.00033491,0.00045079,-0.00004849,0.00014686,-0.000
 30952,0.00032338,-0.00005128,0.00030138,-0.00062288,-0.00004345,0.0004
 1737,-0.02631983,-0.04382960,-0.03819437,0.00051584,0.00301120,-0.0003
 6121,0.00001821,-0.00002043,-0.00000177,0.00000162,0.00000269,0.000000
 93,-0.00000179,-0.00000138,-0.00000218,-0.00000726,-0.00000056,-0.0000
 0305,0.00000092,-0.00000234,-0.00000097,0.00002930,-0.00100656,0.00015
 940,-0.00013573,0.00033830,-0.00009961,0.00099948,-0.00039837,0.000071
 72,0.00003401,0.00000961,-0.00000951,-0.00002283,0.00001316,0.00004251
 ,-0.00001866,-0.00001770,0.00000453,-0.00003489,-0.00006814,0.00002318
 ,0.02712109,0.03342425,-0.00020902,-0.00015133,0.00017855,0.00018248,0
 .00007456,0.00001014,-0.00003576,0.00002024,-0.00002764,0.00001279,-0.
 00000497,0.00000232,-0.00002531,0.00000604,-0.00001595,0.00001441,0.00
 000740,0.00000809,-0.00001703,-0.00000859,0.00000081,0.00198068,-0.000
 92336,0.00178229,0.00091940,0.00007698,0.00006031,0.00374233,-0.001135
 54,-0.00373726,-0.01819173,-0.00415200,-0.01868350,-0.00176811,0.00055
 715,0.00041861,0.00010093,0.00048142,-0.00018665,0.00046565,0.00010171
 ,0.00027302,0.00000894,-0.00022267,0.00028910,-0.00041156,0.00000689,-
 0.00005340,0.00054189,0.00031098,-0.00026882,-0.12700845,-0.03695806,-
 0.23451038,0.00346747,0.00072563,0.00632118,0.00000128,-0.00000798,-0.
 00000254,-0.00000251,0.00000250,-0.00000598,-0.00000337,-0.00000074,-0
 .00000257,-0.00000403,-0.00000209,0.00000140,0.00000441,-0.00000151,0.
 00000049,-0.00011377,0.00013650,0.00000207,-0.00098878,-0.00019440,-0.
 00104997,0.00012957,-0.00068537,0.00055251,0.00001133,0.00002201,-0.00
 001396,-0.00002656,-0.00005984,0.00002777,0.00000715,-0.00002435,-0.00
 000676,-0.00002959,-0.00008437,0.00008553,0.13750657,0.04125819,0.2477
 2728,0.00048844,-0.00000801,-0.00058252,-0.00001873,0.00006767,0.00007
 752,0.00004874,0.00004621,-0.00000373,0.00002423,-0.00003533,-0.000015
 68,0.00002480,-0.00000803,0.00002536,-0.00002145,0.00000647,0.00002882
 ,0.00001399,-0.00001592,0.00000265,0.01077955,-0.00232667,-0.01825163,
 -0.00242103,-0.00060650,-0.00279700,-0.00067512,-0.00009749,-0.0006152
 2,-0.00534518,-0.00039098,-0.00067377,0.00022433,0.00003080,0.00139940
 ,-0.00001728,-0.00006836,0.00002037,-0.00000993,-0.00000565,-0.0000346
 0,-0.00004000,0.00000949,0.00000238,0.00000282,-0.00011421,0.00006998,
 -0.00045303,0.00007594,-0.00007897,-0.00782878,0.00410022,0.02977270,-
 0.10178410,0.01231740,0.10023255,-0.00000214,-0.00002609,0.00000856,0.
 00000845,-0.00000802,0.00000738,0.00000279,-0.00000353,0.00000295,0.00
 000846,0.00000201,-0.00000022,-0.00000818,-0.00001462,-0.00000880,0.00
 050775,-0.00012713,-0.00101426,0.00006389,0.00004160,0.00009577,0.0000
 0561,0.00004262,-0.00000234,-0.00002776,0.00000658,-0.00000403,-0.0000
 0846,0.00000573,0.00000085,-0.00004755,-0.00000500,0.00001199,0.000021
 83,0.00001400,0.00001783,0.00059897,0.00013430,-0.00026168,0.10588407,
 0.00005562,-0.00239880,0.00020292,0.00027213,-0.00011732,0.00013577,0.
 00004241,0.00003004,-0.00006948,0.00001419,-0.00002015,0.00002974,-0.0
 0002039,0.00000647,-0.00000591,0.00000491,-0.00000560,0.00002103,-0.00
 007280,0.00003998,0.00001165,0.00168032,0.00279647,-0.00291662,-0.0006
 0716,0.00436833,-0.00117347,0.00000787,-0.00036846,0.00019120,-0.00085
 388,0.00779112,-0.00082643,0.00019290,0.00018794,0.00003788,0.00002413
 ,-0.00007424,-0.00003398,0.00001589,0.00003080,-0.00001233,-0.00002657
 ,0.00001369,-0.00001991,0.00009492,-0.00001601,0.00005179,-0.00002408,
 -0.00014970,-0.00005329,-0.00039155,0.00331792,0.00031862,0.01219248,-
 0.03934553,-0.03393338,-0.00000412,-0.00000310,0.00002373,0.00000586,-
 0.00000158,0.00000336,-0.00000140,-0.00000338,0.00000122,-0.00000392,-
 0.00000155,-0.00000053,-0.00001623,-0.00000985,-0.00000205,0.00008076,
 0.00042737,-0.00018627,0.00005019,-0.00103501,0.00014810,0.00006208,0.
 00001003,-0.00003357,0.00000388,0.00000248,0.00000107,0.00000065,-0.00
 000996,-0.00000587,-0.00000033,0.00001623,0.00000708,0.00001509,-0.000
 02243,0.00001960,0.00024564,-0.00433516,0.00082898,-0.01303950,0.02887
 898,0.00093339,0.00053281,0.00039017,-0.00020112,0.00003376,0.00016609
 ,-0.00000150,0.00003847,0.00002688,0.00001176,-0.00002444,-0.00000314,
 -0.00000170,-0.00000611,0.00000778,-0.00003033,-0.00001407,0.00001390,
 -0.00000491,0.00003170,-0.00008549,0.01087436,-0.00266335,-0.01754598,
 -0.00390528,-0.00119569,-0.00234811,-0.00073512,0.00010862,0.00043018,
 0.00012267,-0.00079247,0.00213660,-0.00021571,-0.00001216,-0.00010596,
 0.00004557,0.00000544,-0.00002283,-0.00000910,0.00000063,0.00000787,0.
 00002267,0.00000462,-0.00000512,-0.00000694,0.00001515,-0.00000939,0.0
 0004723,-0.00002675,0.00003401,-0.00071427,-0.00039302,0.00067167,0.10
 014394,-0.03354818,-0.28938494,0.00001209,-0.00004555,0.00000903,0.000
 00234,-0.00000539,-0.00000348,-0.00000207,-0.00000239,0.00000134,-0.00
 000588,0.00000087,-0.00000385,-0.00000777,-0.00001388,0.00000075,0.000
 64413,-0.00015864,-0.00091820,0.00006143,0.00014285,-0.00004735,-0.000
 01568,0.00000712,-0.00000523,0.00000920,-0.00000287,0.00000294,0.00000
 514,-0.00000211,-0.00000187,0.00000938,0.00000040,-0.00000320,-0.00001
 061,-0.00000807,-0.00000476,0.00035529,0.00075337,0.00082387,-0.107432
 59,0.03723934,0.30577581\\-0.00000025,-0.00000006,0.00000014,-0.000000
 34,-0.00000010,-0.00000033,-0.00000004,0.00000007,0.00000007,-0.000000
 08,0.00000024,0.00000003,-0.00000002,0.00000014,0.00000002,-0.00000014
 ,0.00000011,-0.00000038,0.00000011,-0.00000013,-0.00000014,0.00000032,
 -0.00000025,0.00000006,0.00000024,0.00000018,-0.00000023,0.00000020,0.
 00000001,0.00000002,0.00000009,0.,0.00000024,0.00000003,-0.00000011,0.
 00000003,-0.00000028,-0.00000025,-0.00000017,-0.00000017,-0.00000021,0
 .00000015,-0.00000003,0.00000002,0.00000016,-0.00000011,0.00000024,0.0
 0000011,-0.00000021,0.00000020,0.00000037,0.00000015,-0.00000021,-0.00
 000018,0.00000013,-0.00000039,0.00000009,0.00000016,0.00000030,0.00000
 019,0.00000005,0.00000040,0.00000024,0.00000014,0.00000028,0.,0.000000
 06,-0.00000003,-0.00000030,-0.00000005,-0.00000029,-0.00000026,-0.0000
 0013,0.00000020,-0.00000022,0.00000002,0.00000035,-0.00000001,0.000000
 03,-0.00000025,-0.00000024,0.00000003,-0.00000029,-0.00000007,0.000000
 17,0.00000008,0.00000012,0.00000012,0.00000042,0.00000023,0.00000009,0
 .00000027,0.00000028,-0.00000015,-0.00000046,-0.00000007,-0.00000011,-
 0.00000047,0.00000003\\\@
 The archive entry for this job was punched.


 Any fool can criticize, condemn, and complain -- and most do.
 -- Dale Carnegie
 Job cpu time:       0 days 12 hours 28 minutes  7.9 seconds.
 Elapsed time:       0 days  1 hours 33 minutes 31.5 seconds.
 File lengths (MBytes):  RWF=   2324 Int=      0 D2E=      0 Chk=     51 Scr=      1
 Normal termination of Gaussian 16 at Fri Apr 11 19:33:42 2025.
