 Entering Gaussian System, Link 0=g16
 Input=/tmp/pytest-of-osl/pytest-5/test_gaussian_methods_MP5_0/Ethane/Gaussian 16 Single Point Singlet MP5 Gas Phase 6-31G*/Input/Ethane.com
 Output=/tmp/pytest-of-osl/pytest-5/test_gaussian_methods_MP5_0/Ethane/Gaussian 16 Single Point Singlet MP5 Gas Phase 6-31G*/Output/Ethane.log
 Initial command:
 /gpfs1/apps/software/Gaussian16/AVX/g16/l1.exe "/scratch/tmp/osl/12650775b68e44f59aa110865383be32/Gau-12302.inp" -scrdir="/scratch/tmp/osl/12650775b68e44f59aa110865383be32/"
 Entering Link 1 = /gpfs1/apps/software/Gaussian16/AVX/g16/l1.exe PID=     12303.
  
 Copyright (c) 1988-2019, Gaussian, Inc.  All Rights Reserved.
  
 This is part of the Gaussian(R) 16 program.  It is based on
 the Gaussian(R) 09 system (copyright 2009, Gaussian, Inc.),
 the Gaussian(R) 03 system (copyright 2003, Gaussian, Inc.),
 the Gaussian(R) 98 system (copyright 1998, Gaussian, Inc.),
 the Gaussian(R) 94 system (copyright 1995, Gaussian, Inc.),
 the Gaussian 92(TM) system (copyright 1992, Gaussian, Inc.),
 the Gaussian 90(TM) system (copyright 1990, Gaussian, Inc.),
 the Gaussian 88(TM) system (copyright 1988, Gaussian, Inc.),
 the Gaussian 86(TM) system (copyright 1986, Carnegie Mellon
 University), and the Gaussian 82(TM) system (copyright 1983,
 Carnegie Mellon University). Gaussian is a federally registered
 trademark of Gaussian, Inc.
  
 This software contains proprietary and confidential information,
 including trade secrets, belonging to Gaussian, Inc.
  
 This software is provided under written license and may be
 used, copied, transmitted, or stored only in accord with that
 written license.
  
 The following legend is applicable only to US Government
 contracts under FAR:
  
                    RESTRICTED RIGHTS LEGEND
  
 Use, reproduction and disclosure by the US Government is
 subject to restrictions as set forth in subparagraphs (a)
 and (c) of the Commercial Computer Software - Restricted
 Rights clause in FAR 52.227-19.
  
 Gaussian, Inc.
 340 Quinnipiac St., Bldg. 40, Wallingford CT 06492
  
  
 ---------------------------------------------------------------
 Warning -- This program may not be used in any manner that
 competes with the business of Gaussian, Inc. or will provide
 assistance to any competitor of Gaussian, Inc.  The licensee
 of this program is prohibited from giving any competitor of
 Gaussian, Inc. access to this program.  By using this program,
 the user acknowledges that Gaussian, Inc. is engaged in the
 business of creating and licensing software in the field of
 computational chemistry and represents and warrants to the
 licensee that it is not a competitor of Gaussian, Inc. and that
 it will not use this program in any manner prohibited above.
 ---------------------------------------------------------------
  

 Cite this work as:
 Gaussian 16, Revision C.01,
 M. J. Frisch, G. W. Trucks, H. B. Schlegel, G. E. Scuseria, 
 M. A. Robb, J. R. Cheeseman, G. Scalmani, V. Barone, 
 G. A. Petersson, H. Nakatsuji, X. Li, M. Caricato, A. V. Marenich, 
 J. Bloino, B. G. Janesko, R. Gomperts, B. Mennucci, H. P. Hratchian, 
 J. V. Ortiz, A. F. Izmaylov, J. L. Sonnenberg, D. Williams-Young, 
 F. Ding, F. Lipparini, F. Egidi, J. Goings, B. Peng, A. Petrone, 
 T. Henderson, D. Ranasinghe, V. G. Zakrzewski, J. Gao, N. Rega, 
 G. Zheng, W. Liang, M. Hada, M. Ehara, K. Toyota, R. Fukuda, 
 J. Hasegawa, M. Ishida, T. Nakajima, Y. Honda, O. Kitao, H. Nakai, 
 T. Vreven, K. Throssell, J. A. Montgomery, Jr., J. E. Peralta, 
 F. Ogliaro, M. J. Bearpark, J. J. Heyd, E. N. Brothers, K. N. Kudin, 
 V. N. Staroverov, T. A. Keith, R. Kobayashi, J. Normand, 
 K. Raghavachari, A. P. Rendell, J. C. Burant, S. S. Iyengar, 
 J. Tomasi, M. Cossi, J. M. Millam, M. Klene, C. Adamo, R. Cammi, 
 J. W. Ochterski, R. L. Martin, K. Morokuma, O. Farkas, 
 J. B. Foresman, and D. J. Fox, Gaussian, Inc., Wallingford CT, 2019.
 
 ******************************************
 Gaussian 16:  ES64L-G16RevC.01  3-Jul-2019
                 7-Nov-2022 
 ******************************************
 %Chk="Ethane.chk"
 %Rwf="Ethane.rwf"
 %NProcShared=16
 Will use up to   16 processors via shared memory.
 %Mem=32GB
 --------------------------------------------------------------------
 #p SP MP5/6-31G* Symmetry=(Tight) Population=(Regular) Density=(SCF)
 --------------------------------------------------------------------
 1/38=1,172=1/1;
 2/12=2,40=1/2;
 3/5=1,6=6,7=1,11=2,25=1,30=1,116=2/1,2,3;
 4//1;
 5/5=2,38=5/2;
 8/6=5,10=2/1,4;
 9/5=5/16,15;
 6//1;
 99/5=1,9=1/99;
 Leave Link    1 at Mon Nov  7 20:28:08 2022, MaxMem=  4294967296 cpu:               0.9 elap:               0.1
 (Enter /gpfs1/apps/software/Gaussian16/AVX/g16/l101.exe)
 ------------------------------------------------
 Ethane_Single_Point_Singlet_MP5_Gas_Phase_6_31G_
 ------------------------------------------------
 Symbolic Z-matrix:
 Charge =  0 Multiplicity = 1
 C                     0.761     0.        0. 
 C                    -0.761     0.        0. 
 H                     1.15966   0.9437    0.3877 
 H                     1.15966  -0.80761   0.62342 
 H                     1.15967  -0.13609  -1.01112 
 H                    -1.15967   0.13609   1.01112 
 H                    -1.15966   0.80761  -0.62342 
 H                    -1.15966  -0.9437   -0.38771 
 
 ITRead=  0  0  0  0  0  0  0  0
 MicOpt= -1 -1 -1 -1 -1 -1 -1 -1
 NAtoms=      8 NQM=        8 NQMF=       0 NMMI=      0 NMMIF=      0
                NMic=       0 NMicF=      0.
                    Isotopes and Nuclear Properties:
 (Nuclear quadrupole moments (NQMom) in fm**2, nuclear magnetic moments (NMagM)
  in nuclear magnetons)

  Atom         1           2           3           4           5           6           7           8
 IAtWgt=          12          12           1           1           1           1           1           1
 AtmWgt=  12.0000000  12.0000000   1.0078250   1.0078250   1.0078250   1.0078250   1.0078250   1.0078250
 NucSpn=           0           0           1           1           1           1           1           1
 AtZEff=  -0.0000000  -0.0000000  -0.0000000  -0.0000000  -0.0000000  -0.0000000  -0.0000000  -0.0000000
 NQMom=    0.0000000   0.0000000   0.0000000   0.0000000   0.0000000   0.0000000   0.0000000   0.0000000
 NMagM=    0.0000000   0.0000000   2.7928460   2.7928460   2.7928460   2.7928460   2.7928460   2.7928460
 AtZNuc=   6.0000000   6.0000000   1.0000000   1.0000000   1.0000000   1.0000000   1.0000000   1.0000000
 Leave Link  101 at Mon Nov  7 20:28:08 2022, MaxMem=  4294967296 cpu:               3.0 elap:               0.2
 (Enter /gpfs1/apps/software/Gaussian16/AVX/g16/l202.exe)
                          Input orientation:                          
 ---------------------------------------------------------------------
 Center     Atomic      Atomic             Coordinates (Angstroms)
 Number     Number       Type             X           Y           Z
 ---------------------------------------------------------------------
      1          6           0        0.761000    0.000000    0.000000
      2          6           0       -0.761000    0.000000    0.000000
      3          1           0        1.159660    0.943700    0.387700
      4          1           0        1.159660   -0.807610    0.623420
      5          1           0        1.159670   -0.136090   -1.011120
      6          1           0       -1.159670    0.136090    1.011120
      7          1           0       -1.159660    0.807610   -0.623420
      8          1           0       -1.159660   -0.943700   -0.387710
 ---------------------------------------------------------------------
                    Distance matrix (angstroms):
                    1          2          3          4          5
     1  C    0.000000
     2  C    1.522000   0.000000
     3  H    1.095359   2.174814   0.000000
     4  H    1.095361   2.174815   1.767102   0.000000
     5  H    1.095364   2.174824   1.767100   1.767105   0.000000
     6  H    2.174824   1.095364   2.533807   2.533806   3.089154
     7  H    2.174815   1.095361   2.533797   3.089141   2.533806
     8  H    2.174816   1.095362   3.089140   2.533801   2.533805
                    6          7          8
     6  H    0.000000
     7  H    1.767105   0.000000
     8  H    1.767108   1.767101   0.000000
 Stoichiometry    C2H6
 Framework group  C1[X(C2H6)]
 Deg. of freedom    18
 Full point group                 C1      NOp   1
 Largest Abelian subgroup         C1      NOp   1
 Largest concise Abelian subgroup C1      NOp   1
                         Standard orientation:                         
 ---------------------------------------------------------------------
 Center     Atomic      Atomic             Coordinates (Angstroms)
 Number     Number       Type             X           Y           Z
 ---------------------------------------------------------------------
      1          6           0        0.761000   -0.000001    0.000000
      2          6           0       -0.761000    0.000000   -0.000000
      3          1           0        1.159660   -0.426833    0.926658
      4          1           0        1.159660   -0.589097   -0.832978
      5          1           0        1.159671    1.015926   -0.093680
      6          1           0       -1.159671   -1.015927    0.093680
      7          1           0       -1.159660    0.589096    0.832978
      8          1           0       -1.159660    0.426842   -0.926658
 ---------------------------------------------------------------------
 Rotational constants (GHZ):          80.2930581          20.0722134          20.0722018
 Leave Link  202 at Mon Nov  7 20:28:08 2022, MaxMem=  4294967296 cpu:               0.0 elap:               0.0
 (Enter /gpfs1/apps/software/Gaussian16/AVX/g16/l301.exe)
 Standard basis: 6-31G(d) (6D, 7F)
 Ernie: Thresh=  0.10000D-02 Tol=  0.10000D-05 Strict=F.
 There are    42 symmetry adapted cartesian basis functions of A   symmetry.
 There are    42 symmetry adapted basis functions of A   symmetry.
    42 basis functions,    80 primitive gaussians,    42 cartesian basis functions
     9 alpha electrons        9 beta electrons
       nuclear repulsion energy        42.2318129230 Hartrees.
 IExCor=    0 DFT=F Ex=HF Corr=None ExCW=0 ScaHFX=  1.000000
 ScaDFX=  1.000000  1.000000  1.000000  1.000000 ScalE2=  1.000000  1.000000
 IRadAn=      5 IRanWt=     -1 IRanGd=            0 ICorTp=0 IEmpDi=  4
 NAtoms=    8 NActive=    8 NUniq=    8 SFac= 1.00D+00 NAtFMM=   60 NAOKFM=F Big=F
 Integral buffers will be    131072 words long.
 Raffenetti 2 integral format.
 Two-electron integral symmetry is turned on.
 Leave Link  301 at Mon Nov  7 20:28:08 2022, MaxMem=  4294967296 cpu:               0.6 elap:               0.0
 (Enter /gpfs1/apps/software/Gaussian16/AVX/g16/l302.exe)
 NPDir=0 NMtPBC=     1 NCelOv=     1 NCel=       1 NClECP=     1 NCelD=      1
         NCelK=      1 NCelE2=     1 NClLst=     1 CellRange=     0.0.
 One-electron integrals computed using PRISM.
 One-electron integral symmetry used in STVInt
 NBasis=    42 RedAO= T EigKep=  8.32D-03  NBF=    42
 NBsUse=    42 1.00D-06 EigRej= -1.00D+00 NBFU=    42
 Leave Link  302 at Mon Nov  7 20:28:08 2022, MaxMem=  4294967296 cpu:               1.6 elap:               0.1
 (Enter /gpfs1/apps/software/Gaussian16/AVX/g16/l303.exe)
 DipDrv:  MaxL=1.
 Leave Link  303 at Mon Nov  7 20:28:08 2022, MaxMem=  4294967296 cpu:               0.5 elap:               0.0
 (Enter /gpfs1/apps/software/Gaussian16/AVX/g16/l401.exe)
 ExpMin= 1.61D-01 ExpMax= 3.05D+03 ExpMxC= 4.57D+02 IAcc=3 IRadAn=         5 AccDes= 0.00D+00
 Harris functional with IExCor=  205 and IRadAn=       5 diagonalized for initial guess.
 HarFok:  IExCor=  205 AccDes= 0.00D+00 IRadAn=         5 IDoV= 1 UseB2=F ITyADJ=14
 ICtDFT=  3500011 ScaDFX=  1.000000  1.000000  1.000000  1.000000
 FoFCou: FMM=F IPFlag=           0 FMFlag=      100000 FMFlg1=           0
         NFxFlg=           0 DoJE=T BraDBF=F KetDBF=T FulRan=T
         wScrn=  0.000000 ICntrl=       500 IOpCl=  0 I1Cent=   200000004 NGrid=           0
         NMat0=    1 NMatS0=      1 NMatT0=    0 NMatD0=    1 NMtDS0=    0 NMtDT0=    0
 Petite list used in FoFCou.
 Harris En= -79.5053191395498    
 JPrj=0 DoOrth=F DoCkMO=F.
 Initial guess <Sx>= 0.0000 <Sy>= 0.0000 <Sz>= 0.0000 <S**2>=-0.0000 S=-0.0000
 Leave Link  401 at Mon Nov  7 20:28:09 2022, MaxMem=  4294967296 cpu:               2.8 elap:               0.2
 (Enter /gpfs1/apps/software/Gaussian16/AVX/g16/l502.exe)
 Keep R1 and R2 ints in memory in canonical form, NReq=4132981.
 FoFCou: FMM=F IPFlag=           0 FMFlag=           0 FMFlg1=           0
         NFxFlg=           0 DoJE=F BraDBF=F KetDBF=F FulRan=T
         wScrn=  0.000000 ICntrl=       600 IOpCl=  0 I1Cent=           0 NGrid=           0
         NMat0=    1 NMatS0=    903 NMatT0=    0 NMatD0=    1 NMtDS0=    0 NMtDT0=    0
 Symmetry not used in FoFCou.
 Two-electron integral symmetry not used.
 UHF open shell SCF:
 Using DIIS extrapolation, IDIIS=  1040.
 NGot=  4294967296 LenX=  4294145872 LenY=  4294143667
 Requested convergence on RMS density matrix=1.00D-08 within 128 cycles.
 Requested convergence on MAX density matrix=1.00D-06.
 Requested convergence on             energy=1.00D-06.
 No special actions if energy rises.

 Cycle   1  Pass 1  IDiag  1:
 E= -79.0424891468424    
 DIIS: error= 7.28D-02 at cycle   1 NSaved=   1.
 NSaved= 1 IEnMin= 1 EnMin= -79.0424891468424     IErMin= 1 ErrMin= 7.28D-02
 ErrMax= 7.28D-02  0.00D+00 EMaxC= 1.00D-01 BMatC= 8.55D-01 BMatP= 8.55D-01
 IDIUse=3 WtCom= 2.72D-01 WtEn= 7.28D-01
 Coeff-Com:  0.100D+01
 Coeff-En:   0.100D+01
 Coeff:      0.100D+01
 Gap=     0.661 Goal=   None    Shift=    0.000
 Gap=     0.661 Goal=   None    Shift=    0.000
 GapD=    0.661 DampG=2.000 DampE=0.500 DampFc=1.0000 IDamp=-1.
 RMSDP=1.13D-02 MaxDP=1.21D-01              OVMax= 1.38D-01

 Cycle   2  Pass 1  IDiag  1:
 E= -79.1959460219083     Delta-E=       -0.153456875066 Rises=F Damp=F
 DIIS: error= 2.98D-02 at cycle   2 NSaved=   2.
 NSaved= 2 IEnMin= 2 EnMin= -79.1959460219083     IErMin= 2 ErrMin= 2.98D-02
 ErrMax= 2.98D-02  0.00D+00 EMaxC= 1.00D-01 BMatC= 1.40D-01 BMatP= 8.55D-01
 IDIUse=3 WtCom= 7.02D-01 WtEn= 2.98D-01
 Coeff-Com:  0.249D+00 0.751D+00
 Coeff-En:   0.000D+00 0.100D+01
 Coeff:      0.175D+00 0.825D+00
 Gap=     0.781 Goal=   None    Shift=    0.000
 Gap=     0.781 Goal=   None    Shift=    0.000
 RMSDP=3.88D-03 MaxDP=3.63D-02 DE=-1.53D-01 OVMax= 5.47D-02

 Cycle   3  Pass 1  IDiag  1:
 E= -79.2269653147283     Delta-E=       -0.031019292820 Rises=F Damp=F
 DIIS: error= 6.00D-03 at cycle   3 NSaved=   3.
 NSaved= 3 IEnMin= 3 EnMin= -79.2269653147283     IErMin= 3 ErrMin= 6.00D-03
 ErrMax= 6.00D-03  0.00D+00 EMaxC= 1.00D-01 BMatC= 5.04D-03 BMatP= 1.40D-01
 IDIUse=3 WtCom= 9.40D-01 WtEn= 6.00D-02
 Coeff-Com: -0.263D-01 0.116D+00 0.910D+00
 Coeff-En:   0.000D+00 0.000D+00 0.100D+01
 Coeff:     -0.247D-01 0.109D+00 0.916D+00
 Gap=     0.726 Goal=   None    Shift=    0.000
 Gap=     0.726 Goal=   None    Shift=    0.000
 RMSDP=7.02D-04 MaxDP=7.58D-03 DE=-3.10D-02 OVMax= 1.03D-02

 Cycle   4  Pass 1  IDiag  1:
 E= -79.2283458595414     Delta-E=       -0.001380544813 Rises=F Damp=F
 DIIS: error= 7.88D-04 at cycle   4 NSaved=   4.
 NSaved= 4 IEnMin= 4 EnMin= -79.2283458595414     IErMin= 4 ErrMin= 7.88D-04
 ErrMax= 7.88D-04  0.00D+00 EMaxC= 1.00D-01 BMatC= 4.28D-05 BMatP= 5.04D-03
 IDIUse=3 WtCom= 9.92D-01 WtEn= 7.88D-03
 Coeff-Com:  0.381D-02-0.354D-01-0.169D+00 0.120D+01
 Coeff-En:   0.000D+00 0.000D+00 0.000D+00 0.100D+01
 Coeff:      0.378D-02-0.351D-01-0.168D+00 0.120D+01
 Gap=     0.726 Goal=   None    Shift=    0.000
 Gap=     0.726 Goal=   None    Shift=    0.000
 RMSDP=1.29D-04 MaxDP=9.20D-04 DE=-1.38D-03 OVMax= 2.22D-03

 Cycle   5  Pass 1  IDiag  1:
 E= -79.2283653196161     Delta-E=       -0.000019460075 Rises=F Damp=F
 DIIS: error= 1.18D-04 at cycle   5 NSaved=   5.
 NSaved= 5 IEnMin= 5 EnMin= -79.2283653196161     IErMin= 5 ErrMin= 1.18D-04
 ErrMax= 1.18D-04  0.00D+00 EMaxC= 1.00D-01 BMatC= 1.10D-06 BMatP= 4.28D-05
 IDIUse=3 WtCom= 9.99D-01 WtEn= 1.18D-03
 Coeff-Com:  0.696D-03-0.217D-02-0.211D-01-0.120D+00 0.114D+01
 Coeff-En:   0.000D+00 0.000D+00 0.000D+00 0.000D+00 0.100D+01
 Coeff:      0.695D-03-0.217D-02-0.211D-01-0.120D+00 0.114D+01
 Gap=     0.726 Goal=   None    Shift=    0.000
 Gap=     0.726 Goal=   None    Shift=    0.000
 RMSDP=3.17D-05 MaxDP=1.94D-04 DE=-1.95D-05 OVMax= 4.47D-04

 Cycle   6  Pass 1  IDiag  1:
 E= -79.2283659666693     Delta-E=       -0.000000647053 Rises=F Damp=F
 DIIS: error= 1.03D-05 at cycle   6 NSaved=   6.
 NSaved= 6 IEnMin= 6 EnMin= -79.2283659666693     IErMin= 6 ErrMin= 1.03D-05
 ErrMax= 1.03D-05  0.00D+00 EMaxC= 1.00D-01 BMatC= 7.41D-09 BMatP= 1.10D-06
 IDIUse=1 WtCom= 1.00D+00 WtEn= 0.00D+00
 Coeff-Com: -0.150D-03 0.700D-03 0.562D-02 0.125D-01-0.238D+00 0.122D+01
 Coeff:     -0.150D-03 0.700D-03 0.562D-02 0.125D-01-0.238D+00 0.122D+01
 Gap=     0.726 Goal=   None    Shift=    0.000
 Gap=     0.726 Goal=   None    Shift=    0.000
 RMSDP=3.45D-06 MaxDP=2.28D-05 DE=-6.47D-07 OVMax= 4.00D-05

 Cycle   7  Pass 1  IDiag  1:
 E= -79.2283659708025     Delta-E=       -0.000000004133 Rises=F Damp=F
 DIIS: error= 4.89D-07 at cycle   7 NSaved=   7.
 NSaved= 7 IEnMin= 7 EnMin= -79.2283659708025     IErMin= 7 ErrMin= 4.89D-07
 ErrMax= 4.89D-07  0.00D+00 EMaxC= 1.00D-01 BMatC= 2.03D-11 BMatP= 7.41D-09
 IDIUse=1 WtCom= 1.00D+00 WtEn= 0.00D+00
 Coeff-Com:  0.205D-04-0.103D-03-0.786D-03-0.112D-02 0.307D-01-0.183D+00
 Coeff-Com:  0.115D+01
 Coeff:      0.205D-04-0.103D-03-0.786D-03-0.112D-02 0.307D-01-0.183D+00
 Coeff:      0.115D+01
 Gap=     0.726 Goal=   None    Shift=    0.000
 Gap=     0.726 Goal=   None    Shift=    0.000
 RMSDP=1.22D-07 MaxDP=9.59D-07 DE=-4.13D-09 OVMax= 1.40D-06

 Cycle   8  Pass 1  IDiag  1:
 E= -79.2283659708117     Delta-E=       -0.000000000009 Rises=F Damp=F
 DIIS: error= 5.51D-08 at cycle   8 NSaved=   8.
 NSaved= 8 IEnMin= 8 EnMin= -79.2283659708117     IErMin= 8 ErrMin= 5.51D-08
 ErrMax= 5.51D-08  0.00D+00 EMaxC= 1.00D-01 BMatC= 3.33D-13 BMatP= 2.03D-11
 IDIUse=1 WtCom= 1.00D+00 WtEn= 0.00D+00
 Coeff-Com: -0.275D-05 0.135D-04 0.107D-03 0.135D-03-0.420D-02 0.261D-01
 Coeff-Com: -0.233D+00 0.121D+01
 Coeff:     -0.275D-05 0.135D-04 0.107D-03 0.135D-03-0.420D-02 0.261D-01
 Coeff:     -0.233D+00 0.121D+01
 Gap=     0.726 Goal=   None    Shift=    0.000
 Gap=     0.726 Goal=   None    Shift=    0.000
 RMSDP=1.59D-08 MaxDP=1.17D-07 DE=-9.21D-12 OVMax= 2.05D-07

 Cycle   9  Pass 1  IDiag  1:
 E= -79.2283659708118     Delta-E=       -0.000000000000 Rises=F Damp=F
 DIIS: error= 9.89D-09 at cycle   9 NSaved=   9.
 NSaved= 9 IEnMin= 9 EnMin= -79.2283659708118     IErMin= 9 ErrMin= 9.89D-09
 ErrMax= 9.89D-09  0.00D+00 EMaxC= 1.00D-01 BMatC= 3.37D-15 BMatP= 3.33D-13
 IDIUse=1 WtCom= 1.00D+00 WtEn= 0.00D+00
 Coeff-Com:  0.400D-06-0.197D-05-0.159D-04-0.110D-04 0.583D-03-0.375D-02
 Coeff-Com:  0.396D-01-0.247D+00 0.121D+01
 Coeff:      0.400D-06-0.197D-05-0.159D-04-0.110D-04 0.583D-03-0.375D-02
 Coeff:      0.396D-01-0.247D+00 0.121D+01
 Gap=     0.726 Goal=   None    Shift=    0.000
 Gap=     0.726 Goal=   None    Shift=    0.000
 RMSDP=1.58D-09 MaxDP=1.13D-08 DE=-1.28D-13 OVMax= 2.47D-08

 SCF Done:  E(UHF) =  -79.2283659708     A.U. after    9 cycles
            NFock=  9  Conv=0.16D-08     -V/T= 2.0013
 <Sx>= 0.0000 <Sy>= 0.0000 <Sz>= 0.0000 <S**2>= 0.0000 S= 0.0000
 <L.S>=  0.00000000000    
 KE= 7.912662216425D+01 PE=-2.681337451219D+02 EE= 6.754694406377D+01
 Annihilation of the first spin contaminant:
 S**2 before annihilation     0.0000,   after     0.0000
 Leave Link  502 at Mon Nov  7 20:28:09 2022, MaxMem=  4294967296 cpu:               2.1 elap:               0.1
 (Enter /gpfs1/apps/software/Gaussian16/AVX/g16/l801.exe)
 ExpMin= 1.61D-01 ExpMax= 3.05D+03 ExpMxC= 4.57D+02 IAcc=3 IRadAn=         5 AccDes= 0.00D+00
 HarFok:  IExCor=  205 AccDes= 0.00D+00 IRadAn=         5 IDoV=-2 UseB2=F ITyADJ=14
 ICtDFT= 12500011 ScaDFX=  1.000000  1.000000  1.000000  1.000000
 Largest valence mixing into a core orbital is  1.96D-04
 Largest core mixing into a valence orbital is  3.13D-05
 Largest valence mixing into a core orbital is  1.96D-04
 Largest core mixing into a valence orbital is  3.13D-05
 Range of M.O.s used for correlation:     3    42
 NBasis=    42 NAE=     9 NBE=     9 NFC=     2 NFV=     0
 NROrb=     40 NOA=     7 NOB=     7 NVA=    33 NVB=    33
 Leave Link  801 at Mon Nov  7 20:28:09 2022, MaxMem=  4294967296 cpu:               0.8 elap:               0.1
 (Enter /gpfs1/apps/software/Gaussian16/AVX/g16/l804.exe)
 Open-shell transformation, MDV=  4294967296 ITran=5 ISComp=1.
 Unit  1 TFree=        213071 TCopy=        228383.
 Semi-Direct transformation.
 ModeAB=           2 MOrb=            40 LenV=    4294755010
 LASXX=       331155 LTotXX=      331155 LenRXX=      331155
 LTotAB=      672400 MaxLAS=      740460 LenRXY=      740460
 NonZer=      784740 LenScr=     1572864 LnRSAI=           0
 LnScr1=           0 LExtra=           0 Total=      2644479
 MaxDsk=          -1 SrtSym=           F ITran=            5
 DoSDTr:  NPSUse= 16
 JobTyp=1 Pass  1:  I=   1 to  40.
 (rs|ai) integrals will be sorted in core.
 Complete sort for first half transformation.
 First half transformation complete.
 Begin second half transformation for I=  10.
 Begin second half transformation for I=  20.
 Begin second half transformation for I=  30.
 Begin second half transformation for I=  40.
 Begin second half transformation for I=  10.
 Begin second half transformation for I=  20.
 Begin second half transformation for I=  30.
 Begin second half transformation for I=  40.
 Complete sort for second half transformation.
 Second half transformation complete.
 ModeAB=           2 MOrb=            40 LenV=    4294755010
 LASXX=       331155 LTotXX=      331155 LenRXX=      740460
 LTotAB=           0 MaxLAS=      740460 LenRXY=           0
 NonZer=      784740 LenScr=     1572864 LnRSAI=           0
 LnScr1=           0 LExtra=           0 Total=      2313324
 MaxDsk=          -1 SrtSym=           F ITran=            5
 DoSDTr:  NPSUse= 16
 JobTyp=2 Pass  1:  I=   1 to  40.
 (rs|ai) integrals will be sorted in core.
 Complete sort for first half transformation.
 First half transformation complete.
 Begin second half transformation for I=  10.
 Begin second half transformation for I=  20.
 Begin second half transformation for I=  30.
 Begin second half transformation for I=  40.
 Complete sort for second half transformation.
 Second half transformation complete.
 SymMOI:  orbitals are not symmetric.
 Spin components of T(2) and E(2):
     alpha-alpha T2 =       0.9623951644D-02 E2=     -0.2877457032D-01
     alpha-beta  T2 =       0.6939991260D-01 E2=     -0.2087999313D+00
     beta-beta   T2 =       0.9623951644D-02 E2=     -0.2877457032D-01
 ANorm=    0.1043382871D+01
 E2 =    -0.2663490719D+00 EUMP2 =    -0.79494715042741D+02
 (S**2,0)=  0.00000D+00           (S**2,1)=  0.00000D+00
 E(PUHF)=      -0.79228365971D+02        E(PMP2)=      -0.79494715043D+02
 Leave Link  804 at Mon Nov  7 20:28:09 2022, MaxMem=  4294967296 cpu:               5.2 elap:               0.3
 (Enter /gpfs1/apps/software/Gaussian16/AVX/g16/l916.exe)
 CIDS:  MDV=  4294967296.
 Frozen-core window:  NFC=   2 NFV=   0.
 IFCWin=0 IBDFC=1 NFBD=     0     0 NFCmp=     0     0 NFFFC=     0     0
 Using original routines for 1st iteration, S=F.
 Using DO4UQ or CC4UQ for 2nd and later iterations.
 MP4(SDTQ)
 =========
 E(PMP3)=      -0.79520878782D+02
 MP4(D)= -0.73927780D-02
 MP4(S)= -0.18694891D-02
 MP4(R+Q)=  0.36711891D-02
 Time for triples=        3.59 seconds.
 MP4(T)=   -0.63598675D-02
 E3=       -0.26163739D-01        EUMP3=      -0.79520878782D+02
 E4(DQ)=   -0.37215889D-02        UMP4(DQ)=   -0.79524600370D+02
 E4(SDQ)=  -0.55910780D-02        UMP4(SDQ)=  -0.79526469860D+02
 E4(SDTQ)= -0.11950945D-01        UMP4(SDTQ)= -0.79532829727D+02
 VARIATIONAL ENERGIES WITH THE FIRST-ORDER WAVEFUNCTION:
 E(VAR1)=  -0.79497059672D+02     E(CISD,4)=  -0.79506529785D+02
 Largest amplitude= 3.07D-02

 S**2, projected HF & approx projected MPn energies after annihilation of
 unwanted spin states (see manual for definitions):

 spins       (S**2,0) (S**2,1)    PUHF        PMP2        PMP3        PMP4
 annihilated
 s+1         0.00000  0.00000  -79.228366  -79.494715  -79.520879  -79.532830
 s+1,s+2     0.00000  0.00000  -79.228366  -79.494715  -79.520879  -79.532830
 s+1 to s+3  0.00000  0.00000  -79.228366  -79.494715  -79.520879  -79.532830
 s+1 to s+4 -0.00000 -0.00000  -79.228366  -79.494715  -79.520879  -79.532830
 s+1 to s+5 -0.00000 -0.00000  -79.228366
 s+1 to s+6 -0.00000 -0.00000  -79.228366

 Leave Link  916 at Mon Nov  7 20:28:10 2022, MaxMem=  4294967296 cpu:               7.5 elap:               0.5
 (Enter /gpfs1/apps/software/Gaussian16/AVX/g16/l915.exe)
 UMP5:  MDV=4294967296.
 Frozen-core window:  NFC=   2 NFV=   0.
 IFCWin=0 IBDFC=1 NFBD=     0     0 NFCmp=     0     0 NFFFC=     0     0
 MP5 
 ===
 Saving the triples amplitudes on disk, using    5504576 words of disk space.
 Time for triples=        5.46 seconds.
 Disk space used for TT scratch files  :     12326391 words
 E5TTaaa =  -0.41151519D-05
 E5TTaab =  -0.35308404D-03
 E5TTabb =  -0.35308404D-03
 E5TTbbb =  -0.41151519D-05
 E5TT     =  -0.71439838D-03
 E5TQ2    =   0.93436826D-03
 EQQ2     =  -0.63346356D-03
 EMP5QQ(I)      =   0.58136827843D-03
 Time for triples=        4.81 seconds.
 EMP5DT         =  -0.70421880563D-03
 EMP5(ST+TQ(I)) =   0.94423577352D-03
 EMP5DQ         =   0.11597221352D-02
 EMP5DD         =  -0.23956321525D-02
 EMP5SS         =  -0.14734407304D-03
 EMP5SD         =  -0.12432474040D-03
 DEMP5 =  -0.10996872617D-02 MP5 =  -0.79533929414D+02
 Pade Approximates from MP energies 
 [1,0] =  -0.79523728836D+02
 [1,1] =  -0.79542878779D+02
 [2,1] =  -0.79534539449D+02
 Leave Link  915 at Mon Nov  7 20:28:37 2022, MaxMem=  4294967296 cpu:             383.8 elap:              27.3
 (Enter /gpfs1/apps/software/Gaussian16/AVX/g16/l601.exe)
 Copying SCF densities to generalized density rwf, IOpCl= 1 IROHF=0.

 **********************************************************************

            Population analysis using the SCF Density.

 **********************************************************************

 Orbital symmetries:
 Alpha Orbitals:
       Occupied  (A) (A) (A) (A) (A) (A) (A) (A) (A)
       Virtual   (A) (A) (A) (A) (A) (A) (A) (A) (A) (A) (A) (A)
                 (A) (A) (A) (A) (A) (A) (A) (A) (A) (A) (A) (A)
                 (A) (A) (A) (A) (A) (A) (A) (A) (A)
 Beta  Orbitals:
       Occupied  (A) (A) (A) (A) (A) (A) (A) (A) (A)
       Virtual   (A) (A) (A) (A) (A) (A) (A) (A) (A) (A) (A) (A)
                 (A) (A) (A) (A) (A) (A) (A) (A) (A) (A) (A) (A)
                 (A) (A) (A) (A) (A) (A) (A) (A) (A)
 The electronic state is 1-A.
 Alpha  occ. eigenvalues --  -11.21383 -11.21323  -1.01773  -0.83948  -0.59575
 Alpha  occ. eigenvalues --   -0.59575  -0.51129  -0.48478  -0.48478
 Alpha virt. eigenvalues --    0.24157   0.30073   0.31404   0.31404   0.33765
 Alpha virt. eigenvalues --    0.33765   0.41431   0.70589   0.74209   0.74209
 Alpha virt. eigenvalues --    0.85108   0.85108   0.94521   1.15035   1.15035
 Alpha virt. eigenvalues --    1.19937   1.19943   1.19943   1.25189   1.27545
 Alpha virt. eigenvalues --    1.68648   1.80362   1.80362   2.25778   2.28998
 Alpha virt. eigenvalues --    2.28998   2.60960   2.60961   2.67366   2.67367
 Alpha virt. eigenvalues --    2.94107   4.57573   4.79307
  Beta  occ. eigenvalues --  -11.21383 -11.21323  -1.01773  -0.83948  -0.59575
  Beta  occ. eigenvalues --   -0.59575  -0.51129  -0.48478  -0.48478
  Beta virt. eigenvalues --    0.24157   0.30073   0.31404   0.31404   0.33765
  Beta virt. eigenvalues --    0.33765   0.41431   0.70589   0.74209   0.74209
  Beta virt. eigenvalues --    0.85108   0.85108   0.94521   1.15035   1.15035
  Beta virt. eigenvalues --    1.19937   1.19943   1.19943   1.25189   1.27545
  Beta virt. eigenvalues --    1.68648   1.80362   1.80362   2.25778   2.28998
  Beta virt. eigenvalues --    2.28998   2.60960   2.60961   2.67366   2.67367
  Beta virt. eigenvalues --    2.94107   4.57573   4.79307
     Alpha Molecular Orbital Coefficients:
                           5         6         7         8         9
                           O         O         O         O         O
     Eigenvalues --    -0.59575  -0.59575  -0.51129  -0.48478  -0.48478
   1 1   C  1S          0.00000  -0.00000   0.01672  -0.00000  -0.00000
   2        2S         -0.00000   0.00000  -0.03929   0.00000   0.00000
   3        2PX         0.00000   0.00000   0.40238  -0.00000  -0.00001
   4        2PY         0.00343   0.30885   0.00001   0.09511   0.29112
   5        2PZ         0.30886  -0.00343  -0.00000  -0.29112   0.09511
   6        3S         -0.00000   0.00000  -0.03619   0.00000   0.00000
   7        3PX         0.00000   0.00000   0.20379  -0.00000  -0.00001
   8        3PY         0.00168   0.15106   0.00000   0.05709   0.17476
   9        3PZ         0.15107  -0.00168  -0.00000  -0.17476   0.05709
  10        4XX        -0.00000   0.00000  -0.02341   0.00000   0.00000
  11        4YY        -0.00421   0.01553   0.01459   0.01124   0.01674
  12        4ZZ         0.00421  -0.01553   0.01459  -0.01125  -0.01674
  13        4XY         0.00009   0.00791   0.00000   0.00771   0.02359
  14        4XZ         0.00791  -0.00009   0.00000  -0.02359   0.00771
  15        4YZ        -0.01794  -0.00486  -0.00000   0.01932  -0.01298
  16 2   C  1S          0.00000   0.00000   0.01672  -0.00000  -0.00000
  17        2S         -0.00000  -0.00000  -0.03929   0.00000   0.00000
  18        2PX        -0.00000   0.00000  -0.40238   0.00000   0.00001
  19        2PY         0.00343   0.30885  -0.00001  -0.09511  -0.29112
  20        2PZ         0.30885  -0.00343  -0.00000   0.29112  -0.09511
  21        3S         -0.00000  -0.00000  -0.03619   0.00000   0.00000
  22        3PX        -0.00000   0.00000  -0.20379   0.00000   0.00001
  23        3PY         0.00168   0.15107  -0.00000  -0.05709  -0.17476
  24        3PZ         0.15106  -0.00168  -0.00000   0.17476  -0.05709
  25        4XX        -0.00000  -0.00000  -0.02341   0.00000   0.00000
  26        4YY         0.00421  -0.01553   0.01459   0.01124   0.01674
  27        4ZZ        -0.00421   0.01553   0.01459  -0.01124  -0.01674
  28        4XY        -0.00009  -0.00791   0.00000   0.00771   0.02359
  29        4XZ        -0.00791   0.00009  -0.00000  -0.02359   0.00771
  30        4YZ         0.01793   0.00486  -0.00000   0.01933  -0.01298
  31 3   H  1S          0.16233  -0.07697   0.08239  -0.20866  -0.02429
  32        2S          0.12099  -0.05737   0.07682  -0.19771  -0.02302
  33 4   H  1S         -0.14782  -0.10210   0.08239   0.12536  -0.16856
  34        2S         -0.11018  -0.07610   0.07682   0.11879  -0.15972
  35 5   H  1S         -0.01451   0.17907   0.08240   0.08329   0.19285
  36        2S         -0.01081   0.13346   0.07683   0.07893   0.18273
  37 6   H  1S          0.01451  -0.17907   0.08240   0.08329   0.19285
  38        2S          0.01081  -0.13346   0.07683   0.07892   0.18273
  39 7   H  1S          0.14782   0.10210   0.08239   0.12537  -0.16856
  40        2S          0.11018   0.07610   0.07682   0.11879  -0.15972
  41 8   H  1S         -0.16233   0.07697   0.08239  -0.20866  -0.02429
  42        2S         -0.12099   0.05737   0.07682  -0.19772  -0.02302
                          10        11        12        13        14
                           V         V         V         V         V
     Eigenvalues --     0.24157   0.30073   0.31404   0.31404   0.33765
   1 1   C  1S         -0.09510  -0.12559   0.00001  -0.00000  -0.00000
   2        2S          0.07034   0.05194  -0.00000   0.00000  -0.00000
   3        2PX         0.10051   0.04039  -0.00000   0.00000  -0.00000
   4        2PY         0.00000   0.00001   0.24042   0.00987   0.03501
   5        2PZ        -0.00000  -0.00000  -0.00987   0.24041   0.20555
   6        3S          1.69266   2.44537  -0.00016   0.00003   0.00002
   7        3PX         0.53286  -0.20797   0.00002  -0.00000  -0.00000
   8        3PY        -0.00000   0.00005   0.85117   0.03494   0.23384
   9        3PZ        -0.00000  -0.00001  -0.03494   0.85116   1.37303
  10        4XX        -0.00003  -0.01200   0.00000  -0.00000  -0.00000
  11        4YY        -0.01070  -0.00683  -0.00362   0.00087   0.00112
  12        4ZZ        -0.01070  -0.00683   0.00362  -0.00087  -0.00112
  13        4XY         0.00000  -0.00000  -0.01805  -0.00074   0.00184
  14        4XZ         0.00000   0.00000   0.00074  -0.01805   0.01079
  15        4YZ        -0.00000  -0.00000   0.00100   0.00418   0.01198
  16 2   C  1S         -0.09510   0.12559  -0.00001   0.00000   0.00000
  17        2S          0.07034  -0.05194   0.00000  -0.00000   0.00000
  18        2PX        -0.10051   0.04039  -0.00000   0.00000  -0.00000
  19        2PY         0.00000   0.00001   0.24042   0.00987  -0.03501
  20        2PZ        -0.00000  -0.00000  -0.00987   0.24042  -0.20554
  21        3S          1.69266  -2.44536   0.00016  -0.00001  -0.00001
  22        3PX        -0.53286  -0.20797   0.00002  -0.00000  -0.00001
  23        3PY         0.00001   0.00005   0.85117   0.03496  -0.23386
  24        3PZ        -0.00000  -0.00000  -0.03497   0.85119  -1.37300
  25        4XX        -0.00003   0.01200  -0.00000   0.00000   0.00000
  26        4YY        -0.01070   0.00683   0.00362  -0.00087   0.00112
  27        4ZZ        -0.01070   0.00683  -0.00362   0.00087  -0.00112
  28        4XY         0.00000   0.00000   0.01805   0.00074   0.00184
  29        4XZ        -0.00000  -0.00000  -0.00074   0.01805   0.01079
  30        4YZ         0.00000  -0.00000  -0.00100  -0.00418   0.01198
  31 3   H  1S          0.00342   0.00180   0.02628  -0.05139  -0.02135
  32        2S         -0.81784  -0.84646   0.58361  -1.14123  -1.17539
  33 4   H  1S          0.00342   0.00180   0.03137   0.04845   0.02334
  34        2S         -0.81784  -0.84648   0.69662   1.07597   1.28458
  35 5   H  1S          0.00342   0.00179  -0.05765   0.00294  -0.00198
  36        2S         -0.81784  -0.84658  -1.28006   0.06523  -0.10920
  37 6   H  1S          0.00342  -0.00179   0.05765  -0.00294  -0.00199
  38        2S         -0.81783   0.84658   1.28006  -0.06522  -0.10923
  39 7   H  1S          0.00342  -0.00180  -0.03137  -0.04846   0.02334
  40        2S         -0.81784   0.84647  -0.69659  -1.07602   1.28457
  41 8   H  1S          0.00342  -0.00180  -0.02628   0.05139  -0.02135
  42        2S         -0.81784   0.84646  -0.58363   1.14124  -1.17533
     Beta Molecular Orbital Coefficients:
                           5         6         7         8         9
                           O         O         O         O         O
     Eigenvalues --    -0.59575  -0.59575  -0.51129  -0.48478  -0.48478
   1 1   C  1S          0.00000  -0.00000   0.01672  -0.00000  -0.00000
   2        2S         -0.00000   0.00000  -0.03929   0.00000   0.00000
   3        2PX         0.00000   0.00000   0.40238  -0.00000  -0.00001
   4        2PY         0.00343   0.30885   0.00001   0.09511   0.29112
   5        2PZ         0.30886  -0.00343  -0.00000  -0.29112   0.09511
   6        3S         -0.00000   0.00000  -0.03619   0.00000   0.00000
   7        3PX         0.00000   0.00000   0.20379  -0.00000  -0.00001
   8        3PY         0.00168   0.15106   0.00000   0.05709   0.17476
   9        3PZ         0.15107  -0.00168  -0.00000  -0.17476   0.05709
  10        4XX        -0.00000   0.00000  -0.02341   0.00000   0.00000
  11        4YY        -0.00421   0.01553   0.01459   0.01124   0.01674
  12        4ZZ         0.00421  -0.01553   0.01459  -0.01125  -0.01674
  13        4XY         0.00009   0.00791   0.00000   0.00771   0.02359
  14        4XZ         0.00791  -0.00009   0.00000  -0.02359   0.00771
  15        4YZ        -0.01794  -0.00486  -0.00000   0.01932  -0.01298
  16 2   C  1S          0.00000   0.00000   0.01672  -0.00000  -0.00000
  17        2S         -0.00000  -0.00000  -0.03929   0.00000   0.00000
  18        2PX        -0.00000   0.00000  -0.40238   0.00000   0.00001
  19        2PY         0.00343   0.30885  -0.00001  -0.09511  -0.29112
  20        2PZ         0.30885  -0.00343  -0.00000   0.29112  -0.09511
  21        3S         -0.00000  -0.00000  -0.03619   0.00000   0.00000
  22        3PX        -0.00000   0.00000  -0.20379   0.00000   0.00001
  23        3PY         0.00168   0.15107  -0.00000  -0.05709  -0.17476
  24        3PZ         0.15106  -0.00168  -0.00000   0.17476  -0.05709
  25        4XX        -0.00000  -0.00000  -0.02341   0.00000   0.00000
  26        4YY         0.00421  -0.01553   0.01459   0.01124   0.01674
  27        4ZZ        -0.00421   0.01553   0.01459  -0.01124  -0.01674
  28        4XY        -0.00009  -0.00791   0.00000   0.00771   0.02359
  29        4XZ        -0.00791   0.00009  -0.00000  -0.02359   0.00771
  30        4YZ         0.01793   0.00486  -0.00000   0.01933  -0.01298
  31 3   H  1S          0.16233  -0.07697   0.08239  -0.20866  -0.02429
  32        2S          0.12099  -0.05737   0.07682  -0.19771  -0.02302
  33 4   H  1S         -0.14782  -0.10210   0.08239   0.12536  -0.16856
  34        2S         -0.11018  -0.07610   0.07682   0.11879  -0.15972
  35 5   H  1S         -0.01451   0.17907   0.08240   0.08329   0.19285
  36        2S         -0.01081   0.13346   0.07683   0.07893   0.18273
  37 6   H  1S          0.01451  -0.17907   0.08240   0.08329   0.19285
  38        2S          0.01081  -0.13346   0.07683   0.07892   0.18273
  39 7   H  1S          0.14782   0.10210   0.08239   0.12537  -0.16856
  40        2S          0.11018   0.07610   0.07682   0.11879  -0.15972
  41 8   H  1S         -0.16233   0.07697   0.08239  -0.20866  -0.02429
  42        2S         -0.12099   0.05737   0.07682  -0.19772  -0.02302
                          10        11        12        13        14
                           V         V         V         V         V
     Eigenvalues --     0.24157   0.30073   0.31404   0.31404   0.33765
   1 1   C  1S         -0.09510  -0.12559   0.00001  -0.00000  -0.00000
   2        2S          0.07034   0.05194  -0.00000   0.00000  -0.00000
   3        2PX         0.10051   0.04039  -0.00000   0.00000  -0.00000
   4        2PY         0.00000   0.00001   0.24042   0.00987   0.03501
   5        2PZ        -0.00000  -0.00000  -0.00987   0.24041   0.20555
   6        3S          1.69266   2.44537  -0.00016   0.00003   0.00002
   7        3PX         0.53286  -0.20797   0.00002  -0.00000  -0.00000
   8        3PY        -0.00000   0.00005   0.85117   0.03494   0.23384
   9        3PZ        -0.00000  -0.00001  -0.03494   0.85116   1.37303
  10        4XX        -0.00003  -0.01200   0.00000  -0.00000  -0.00000
  11        4YY        -0.01070  -0.00683  -0.00362   0.00087   0.00112
  12        4ZZ        -0.01070  -0.00683   0.00362  -0.00087  -0.00112
  13        4XY         0.00000  -0.00000  -0.01805  -0.00074   0.00184
  14        4XZ         0.00000   0.00000   0.00074  -0.01805   0.01079
  15        4YZ        -0.00000  -0.00000   0.00100   0.00418   0.01198
  16 2   C  1S         -0.09510   0.12559  -0.00001   0.00000   0.00000
  17        2S          0.07034  -0.05194   0.00000  -0.00000   0.00000
  18        2PX        -0.10051   0.04039  -0.00000   0.00000  -0.00000
  19        2PY         0.00000   0.00001   0.24042   0.00987  -0.03501
  20        2PZ        -0.00000  -0.00000  -0.00987   0.24042  -0.20554
  21        3S          1.69266  -2.44536   0.00016  -0.00001  -0.00001
  22        3PX        -0.53286  -0.20797   0.00002  -0.00000  -0.00001
  23        3PY         0.00001   0.00005   0.85117   0.03496  -0.23386
  24        3PZ        -0.00000  -0.00000  -0.03497   0.85119  -1.37300
  25        4XX        -0.00003   0.01200  -0.00000   0.00000   0.00000
  26        4YY        -0.01070   0.00683   0.00362  -0.00087   0.00112
  27        4ZZ        -0.01070   0.00683  -0.00362   0.00087  -0.00112
  28        4XY         0.00000   0.00000   0.01805   0.00074   0.00184
  29        4XZ        -0.00000  -0.00000  -0.00074   0.01805   0.01079
  30        4YZ         0.00000  -0.00000  -0.00100  -0.00418   0.01198
  31 3   H  1S          0.00342   0.00180   0.02628  -0.05139  -0.02135
  32        2S         -0.81784  -0.84646   0.58361  -1.14123  -1.17539
  33 4   H  1S          0.00342   0.00180   0.03137   0.04845   0.02334
  34        2S         -0.81784  -0.84648   0.69662   1.07597   1.28458
  35 5   H  1S          0.00342   0.00179  -0.05765   0.00294  -0.00198
  36        2S         -0.81784  -0.84658  -1.28006   0.06523  -0.10920
  37 6   H  1S          0.00342  -0.00179   0.05765  -0.00294  -0.00199
  38        2S         -0.81783   0.84658   1.28006  -0.06522  -0.10923
  39 7   H  1S          0.00342  -0.00180  -0.03137  -0.04846   0.02334
  40        2S         -0.81784   0.84647  -0.69659  -1.07602   1.28457
  41 8   H  1S          0.00342  -0.00180  -0.02628   0.05139  -0.02135
  42        2S         -0.81784   0.84646  -0.58363   1.14124  -1.17533
     Alpha Density Matrix:
                           1         2         3         4         5
   1 1   C  1S          1.02894
   2        2S         -0.04143   0.13039
   3        2PX        -0.00104  -0.00145   0.18198
   4        2PY         0.00000  -0.00000  -0.00000   0.18920
   5        2PZ        -0.00000   0.00000   0.00000  -0.00000   0.18920
   6        3S         -0.08584   0.13179   0.00745   0.00000  -0.00000
   7        3PX         0.00012  -0.00078   0.08751  -0.00000  -0.00000
   8        3PY        -0.00000   0.00000  -0.00000   0.10297  -0.00000
   9        3PZ         0.00000   0.00000  -0.00000  -0.00000   0.10297
  10        4XX        -0.00274   0.00181  -0.01157   0.00000  -0.00000
  11        4YY        -0.00377   0.00344   0.00725   0.01072  -0.00304
  12        4ZZ        -0.00377   0.00344   0.00725  -0.01072   0.00304
  13        4XY        -0.00000   0.00000   0.00000   0.01004  -0.00000
  14        4XZ        -0.00000   0.00000   0.00000  -0.00000   0.01004
  15        4YZ        -0.00000   0.00000   0.00000  -0.00351  -0.01238
  16 2   C  1S          0.00510  -0.01004   0.03162  -0.00000   0.00000
  17        2S         -0.01004   0.01897  -0.06202   0.00000  -0.00000
  18        2PX        -0.03162   0.06202  -0.14881   0.00000  -0.00000
  19        2PY         0.00000  -0.00000   0.00000   0.00160  -0.00000
  20        2PZ        -0.00000   0.00000  -0.00000  -0.00000   0.00160
  21        3S          0.00369   0.00017  -0.06491   0.00000  -0.00000
  22        3PX        -0.00775   0.01934  -0.07738   0.00000  -0.00000
  23        3PY         0.00000  -0.00000   0.00000  -0.00964  -0.00000
  24        3PZ        -0.00000   0.00000  -0.00000   0.00000  -0.00964
  25        4XX        -0.00414   0.00691  -0.00879   0.00000  -0.00000
  26        4YY         0.00113  -0.00243   0.00401   0.00116  -0.00033
  27        4ZZ         0.00113  -0.00243   0.00401  -0.00116   0.00033
  28        4XY         0.00000  -0.00000  -0.00000   0.00516  -0.00000
  29        4XZ        -0.00000   0.00000  -0.00000  -0.00000   0.00516
  30        4YZ        -0.00000   0.00000  -0.00000  -0.00038  -0.00134
  31 3   H  1S         -0.02553   0.04697   0.04316  -0.05013   0.10884
  32        2S         -0.00435   0.01221   0.03556  -0.04281   0.09294
  33 4   H  1S         -0.02553   0.04697   0.04316  -0.06919  -0.09783
  34        2S         -0.00435   0.01221   0.03556  -0.05908  -0.08354
  35 5   H  1S         -0.02553   0.04697   0.04316   0.11932  -0.01100
  36        2S         -0.00435   0.01221   0.03556   0.10189  -0.00940
  37 6   H  1S          0.00368  -0.00783   0.01315   0.00881  -0.00081
  38        2S          0.00435  -0.00865   0.02417   0.01952  -0.00180
  39 7   H  1S          0.00368  -0.00783   0.01315  -0.00511  -0.00722
  40        2S          0.00435  -0.00865   0.02417  -0.01132  -0.01601
  41 8   H  1S          0.00368  -0.00783   0.01315  -0.00370   0.00804
  42        2S          0.00435  -0.00865   0.02417  -0.00820   0.01781
                           6         7         8         9        10
   6        3S          0.13805
   7        3PX         0.00184   0.04314
   8        3PY         0.00000  -0.00000   0.05662
   9        3PZ        -0.00000  -0.00000   0.00000   0.05662
  10        4XX         0.00094  -0.00529   0.00000  -0.00000   0.00083
  11        4YY         0.00402   0.00344   0.00591  -0.00167  -0.00042
  12        4ZZ         0.00402   0.00344  -0.00591   0.00167  -0.00042
  13        4XY         0.00000   0.00000   0.00576  -0.00000   0.00000
  14        4XZ         0.00000   0.00000  -0.00000   0.00576  -0.00000
  15        4YZ         0.00000   0.00000  -0.00193  -0.00682  -0.00000
  16 2   C  1S          0.00369   0.00775  -0.00000   0.00000  -0.00414
  17        2S          0.00017  -0.01934   0.00000  -0.00000   0.00691
  18        2PX         0.06491  -0.07738   0.00000  -0.00000   0.00879
  19        2PY        -0.00000   0.00000  -0.00964   0.00000  -0.00000
  20        2PZ         0.00000  -0.00000   0.00000  -0.00964   0.00000
  21        3S         -0.02014  -0.02021   0.00000   0.00000   0.00696
  22        3PX         0.02021  -0.04004   0.00000  -0.00000   0.00444
  23        3PY        -0.00000   0.00000  -0.01098  -0.00000  -0.00000
  24        3PZ         0.00000  -0.00000   0.00000  -0.01098   0.00000
  25        4XX         0.00696  -0.00444   0.00000  -0.00000   0.00060
  26        4YY        -0.00308   0.00245   0.00123  -0.00035  -0.00015
  27        4ZZ        -0.00308   0.00245  -0.00123   0.00035  -0.00015
  28        4XY         0.00000  -0.00000   0.00337  -0.00000   0.00000
  29        4XZ         0.00000  -0.00000  -0.00000   0.00337  -0.00000
  30        4YZ         0.00000  -0.00000  -0.00040  -0.00142  -0.00000
  31 3   H  1S          0.05003   0.02073  -0.02751   0.05973  -0.00209
  32        2S          0.01384   0.01726  -0.02377   0.05161  -0.00205
  33 4   H  1S          0.05003   0.02073  -0.03797  -0.05369  -0.00209
  34        2S          0.01384   0.01726  -0.03281  -0.04639  -0.00205
  35 5   H  1S          0.05004   0.02073   0.06548  -0.00604  -0.00209
  36        2S          0.01384   0.01726   0.05658  -0.00522  -0.00205
  37 6   H  1S         -0.01542   0.01157   0.01143  -0.00105   0.00042
  38        2S         -0.01095   0.01378   0.01630  -0.00150  -0.00110
  39 7   H  1S         -0.01542   0.01157  -0.00663  -0.00937   0.00042
  40        2S         -0.01095   0.01378  -0.00945  -0.01336  -0.00110
  41 8   H  1S         -0.01542   0.01157  -0.00480   0.01043   0.00042
  42        2S         -0.01095   0.01378  -0.00685   0.01486  -0.00110
                          11        12        13        14        15
  11        4YY         0.00106
  12        4ZZ        -0.00027   0.00106
  13        4XY         0.00060  -0.00060   0.00068
  14        4XZ        -0.00017   0.00017  -0.00000   0.00068
  15        4YZ         0.00000  -0.00000  -0.00020  -0.00070   0.00089
  16 2   C  1S          0.00113   0.00113   0.00000   0.00000   0.00000
  17        2S         -0.00243  -0.00243  -0.00000  -0.00000  -0.00000
  18        2PX        -0.00401  -0.00401   0.00000  -0.00000  -0.00000
  19        2PY        -0.00116   0.00116  -0.00516  -0.00000   0.00038
  20        2PZ         0.00033  -0.00033  -0.00000  -0.00516   0.00134
  21        3S         -0.00308  -0.00308  -0.00000  -0.00000  -0.00000
  22        3PX        -0.00245  -0.00245   0.00000  -0.00000  -0.00000
  23        3PY        -0.00123   0.00123  -0.00337  -0.00000   0.00040
  24        3PZ         0.00035  -0.00035  -0.00000  -0.00337   0.00142
  25        4XX        -0.00015  -0.00015   0.00000  -0.00000  -0.00000
  26        4YY         0.00022  -0.00008   0.00036  -0.00010   0.00000
  27        4ZZ        -0.00008   0.00022  -0.00036   0.00010  -0.00000
  28        4XY         0.00036  -0.00036   0.00055  -0.00000  -0.00012
  29        4XZ        -0.00010   0.00010  -0.00000   0.00055  -0.00041
  30        4YZ         0.00000  -0.00000  -0.00012  -0.00041   0.00020
  31 3   H  1S         -0.00162   0.00765  -0.00278   0.00603  -0.00625
  32        2S         -0.00226   0.00575  -0.00251   0.00545  -0.00541
  33 4   H  1S          0.00064   0.00539  -0.00383  -0.00542   0.00776
  34        2S         -0.00031   0.00380  -0.00346  -0.00490   0.00672
  35 5   H  1S          0.01002  -0.00399   0.00661  -0.00061  -0.00150
  36        2S          0.00781  -0.00432   0.00597  -0.00055  -0.00130
  37 6   H  1S          0.00140  -0.00124   0.00378  -0.00035  -0.00028
  38        2S          0.00246  -0.00119   0.00386  -0.00036  -0.00039
  39 7   H  1S         -0.00037   0.00053  -0.00219  -0.00310   0.00146
  40        2S          0.00002   0.00126  -0.00224  -0.00317   0.00202
  41 8   H  1S         -0.00079   0.00096  -0.00159   0.00344  -0.00118
  42        2S         -0.00057   0.00184  -0.00162   0.00352  -0.00163
                          16        17        18        19        20
  16 2   C  1S          1.02894
  17        2S         -0.04143   0.13039
  18        2PX         0.00104   0.00145   0.18198
  19        2PY        -0.00000   0.00000  -0.00000   0.18920
  20        2PZ        -0.00000   0.00000  -0.00000   0.00000   0.18920
  21        3S         -0.08584   0.13179  -0.00745  -0.00000  -0.00000
  22        3PX        -0.00012   0.00078   0.08751  -0.00000   0.00000
  23        3PY         0.00000  -0.00000  -0.00000   0.10297   0.00000
  24        3PZ        -0.00000   0.00000   0.00000   0.00000   0.10297
  25        4XX        -0.00274   0.00181   0.01157  -0.00000   0.00000
  26        4YY        -0.00377   0.00344  -0.00725  -0.01072   0.00304
  27        4ZZ        -0.00377   0.00344  -0.00725   0.01072  -0.00304
  28        4XY        -0.00000   0.00000  -0.00000  -0.01004   0.00000
  29        4XZ         0.00000  -0.00000   0.00000   0.00000  -0.01004
  30        4YZ         0.00000  -0.00000   0.00000   0.00351   0.01238
  31 3   H  1S          0.00368  -0.00783  -0.01315   0.00370  -0.00804
  32        2S          0.00435  -0.00865  -0.02417   0.00820  -0.01781
  33 4   H  1S          0.00368  -0.00783  -0.01315   0.00511   0.00722
  34        2S          0.00435  -0.00865  -0.02417   0.01132   0.01601
  35 5   H  1S          0.00368  -0.00783  -0.01315  -0.00881   0.00081
  36        2S          0.00435  -0.00865  -0.02417  -0.01952   0.00180
  37 6   H  1S         -0.02553   0.04697  -0.04316  -0.11932   0.01100
  38        2S         -0.00435   0.01222  -0.03556  -0.10189   0.00939
  39 7   H  1S         -0.02553   0.04697  -0.04316   0.06919   0.09783
  40        2S         -0.00435   0.01221  -0.03556   0.05908   0.08354
  41 8   H  1S         -0.02553   0.04697  -0.04316   0.05013  -0.10884
  42        2S         -0.00435   0.01221  -0.03556   0.04281  -0.09294
                          21        22        23        24        25
  21        3S          0.13805
  22        3PX        -0.00184   0.04314
  23        3PY        -0.00000  -0.00000   0.05662
  24        3PZ        -0.00000   0.00000  -0.00000   0.05662
  25        4XX         0.00094   0.00529  -0.00000   0.00000   0.00083
  26        4YY         0.00402  -0.00344  -0.00591   0.00167  -0.00042
  27        4ZZ         0.00402  -0.00344   0.00591  -0.00167  -0.00042
  28        4XY         0.00000  -0.00000  -0.00576   0.00000   0.00000
  29        4XZ        -0.00000   0.00000   0.00000  -0.00576   0.00000
  30        4YZ        -0.00000   0.00000   0.00193   0.00682  -0.00000
  31 3   H  1S         -0.01542  -0.01157   0.00480  -0.01043   0.00042
  32        2S         -0.01095  -0.01378   0.00685  -0.01486  -0.00110
  33 4   H  1S         -0.01542  -0.01157   0.00663   0.00937   0.00042
  34        2S         -0.01095  -0.01378   0.00945   0.01336  -0.00110
  35 5   H  1S         -0.01542  -0.01157  -0.01143   0.00105   0.00042
  36        2S         -0.01095  -0.01378  -0.01630   0.00150  -0.00110
  37 6   H  1S          0.05004  -0.02073  -0.06548   0.00604  -0.00209
  38        2S          0.01384  -0.01726  -0.05658   0.00522  -0.00205
  39 7   H  1S          0.05003  -0.02073   0.03797   0.05369  -0.00209
  40        2S          0.01384  -0.01726   0.03281   0.04639  -0.00205
  41 8   H  1S          0.05003  -0.02073   0.02751  -0.05973  -0.00209
  42        2S          0.01384  -0.01726   0.02377  -0.05161  -0.00205
                          26        27        28        29        30
  26        4YY         0.00106
  27        4ZZ        -0.00027   0.00106
  28        4XY         0.00060  -0.00060   0.00068
  29        4XZ        -0.00017   0.00017  -0.00000   0.00068
  30        4YZ         0.00000  -0.00000  -0.00020  -0.00070   0.00089
  31 3   H  1S         -0.00079   0.00096  -0.00159   0.00344  -0.00118
  32        2S         -0.00057   0.00184  -0.00162   0.00352  -0.00163
  33 4   H  1S         -0.00037   0.00053  -0.00219  -0.00310   0.00146
  34        2S          0.00002   0.00126  -0.00224  -0.00317   0.00202
  35 5   H  1S          0.00140  -0.00124   0.00378  -0.00035  -0.00028
  36        2S          0.00246  -0.00119   0.00386  -0.00036  -0.00039
  37 6   H  1S          0.01002  -0.00399   0.00661  -0.00061  -0.00150
  38        2S          0.00781  -0.00432   0.00597  -0.00055  -0.00130
  39 7   H  1S          0.00064   0.00539  -0.00383  -0.00542   0.00776
  40        2S         -0.00031   0.00380  -0.00346  -0.00490   0.00672
  41 8   H  1S         -0.00162   0.00765  -0.00278   0.00603  -0.00625
  42        2S         -0.00226   0.00575  -0.00251   0.00545  -0.00541
                          31        32        33        34        35
  31 3   H  1S          0.10391
  32        2S          0.07884   0.06572
  33 4   H  1S         -0.01069  -0.01996   0.10391
  34        2S         -0.01996  -0.02060   0.07884   0.06572
  35 5   H  1S         -0.01069  -0.01996  -0.01069  -0.01996   0.10391
  36        2S         -0.01996  -0.02060  -0.01996  -0.02060   0.07884
  37 6   H  1S         -0.00556  -0.00621  -0.00556  -0.00621   0.01222
  38        2S         -0.00621  -0.00659  -0.00621  -0.00659   0.02043
  39 7   H  1S         -0.00556  -0.00621   0.01222   0.02043  -0.00556
  40        2S         -0.00621  -0.00659   0.02043   0.02595  -0.00621
  41 8   H  1S          0.01222   0.02043  -0.00556  -0.00621  -0.00556
  42        2S          0.02043   0.02595  -0.00621  -0.00659  -0.00621
                          36        37        38        39        40
  36        2S          0.06572
  37 6   H  1S          0.02043   0.10391
  38        2S          0.02595   0.07884   0.06572
  39 7   H  1S         -0.00621  -0.01069  -0.01996   0.10391
  40        2S         -0.00659  -0.01996  -0.02060   0.07884   0.06572
  41 8   H  1S         -0.00621  -0.01069  -0.01996  -0.01069  -0.01996
  42        2S         -0.00659  -0.01996  -0.02060  -0.01996  -0.02060
                          41        42
  41 8   H  1S          0.10391
  42        2S          0.07884   0.06572
     Beta Density Matrix:
                           1         2         3         4         5
   1 1   C  1S          1.02894
   2        2S         -0.04143   0.13039
   3        2PX        -0.00104  -0.00145   0.18198
   4        2PY         0.00000  -0.00000  -0.00000   0.18920
   5        2PZ        -0.00000   0.00000   0.00000  -0.00000   0.18920
   6        3S         -0.08584   0.13179   0.00745   0.00000  -0.00000
   7        3PX         0.00012  -0.00078   0.08751  -0.00000  -0.00000
   8        3PY        -0.00000   0.00000  -0.00000   0.10297  -0.00000
   9        3PZ         0.00000   0.00000  -0.00000  -0.00000   0.10297
  10        4XX        -0.00274   0.00181  -0.01157   0.00000  -0.00000
  11        4YY        -0.00377   0.00344   0.00725   0.01072  -0.00304
  12        4ZZ        -0.00377   0.00344   0.00725  -0.01072   0.00304
  13        4XY        -0.00000   0.00000   0.00000   0.01004  -0.00000
  14        4XZ        -0.00000   0.00000   0.00000  -0.00000   0.01004
  15        4YZ        -0.00000   0.00000   0.00000  -0.00351  -0.01238
  16 2   C  1S          0.00510  -0.01004   0.03162  -0.00000   0.00000
  17        2S         -0.01004   0.01897  -0.06202   0.00000  -0.00000
  18        2PX        -0.03162   0.06202  -0.14881   0.00000  -0.00000
  19        2PY         0.00000  -0.00000   0.00000   0.00160  -0.00000
  20        2PZ        -0.00000   0.00000  -0.00000  -0.00000   0.00160
  21        3S          0.00369   0.00017  -0.06491   0.00000  -0.00000
  22        3PX        -0.00775   0.01934  -0.07738   0.00000  -0.00000
  23        3PY         0.00000  -0.00000   0.00000  -0.00964  -0.00000
  24        3PZ        -0.00000   0.00000  -0.00000   0.00000  -0.00964
  25        4XX        -0.00414   0.00691  -0.00879   0.00000  -0.00000
  26        4YY         0.00113  -0.00243   0.00401   0.00116  -0.00033
  27        4ZZ         0.00113  -0.00243   0.00401  -0.00116   0.00033
  28        4XY         0.00000  -0.00000  -0.00000   0.00516  -0.00000
  29        4XZ        -0.00000   0.00000  -0.00000  -0.00000   0.00516
  30        4YZ        -0.00000   0.00000  -0.00000  -0.00038  -0.00134
  31 3   H  1S         -0.02553   0.04697   0.04316  -0.05013   0.10884
  32        2S         -0.00435   0.01221   0.03556  -0.04281   0.09294
  33 4   H  1S         -0.02553   0.04697   0.04316  -0.06919  -0.09783
  34        2S         -0.00435   0.01221   0.03556  -0.05908  -0.08354
  35 5   H  1S         -0.02553   0.04697   0.04316   0.11932  -0.01100
  36        2S         -0.00435   0.01221   0.03556   0.10189  -0.00940
  37 6   H  1S          0.00368  -0.00783   0.01315   0.00881  -0.00081
  38        2S          0.00435  -0.00865   0.02417   0.01952  -0.00180
  39 7   H  1S          0.00368  -0.00783   0.01315  -0.00511  -0.00722
  40        2S          0.00435  -0.00865   0.02417  -0.01132  -0.01601
  41 8   H  1S          0.00368  -0.00783   0.01315  -0.00370   0.00804
  42        2S          0.00435  -0.00865   0.02417  -0.00820   0.01781
                           6         7         8         9        10
   6        3S          0.13805
   7        3PX         0.00184   0.04314
   8        3PY         0.00000  -0.00000   0.05662
   9        3PZ        -0.00000  -0.00000   0.00000   0.05662
  10        4XX         0.00094  -0.00529   0.00000  -0.00000   0.00083
  11        4YY         0.00402   0.00344   0.00591  -0.00167  -0.00042
  12        4ZZ         0.00402   0.00344  -0.00591   0.00167  -0.00042
  13        4XY         0.00000   0.00000   0.00576  -0.00000   0.00000
  14        4XZ         0.00000   0.00000  -0.00000   0.00576  -0.00000
  15        4YZ         0.00000   0.00000  -0.00193  -0.00682  -0.00000
  16 2   C  1S          0.00369   0.00775  -0.00000   0.00000  -0.00414
  17        2S          0.00017  -0.01934   0.00000  -0.00000   0.00691
  18        2PX         0.06491  -0.07738   0.00000  -0.00000   0.00879
  19        2PY        -0.00000   0.00000  -0.00964   0.00000  -0.00000
  20        2PZ         0.00000  -0.00000   0.00000  -0.00964   0.00000
  21        3S         -0.02014  -0.02021   0.00000   0.00000   0.00696
  22        3PX         0.02021  -0.04004   0.00000  -0.00000   0.00444
  23        3PY        -0.00000   0.00000  -0.01098  -0.00000  -0.00000
  24        3PZ         0.00000  -0.00000   0.00000  -0.01098   0.00000
  25        4XX         0.00696  -0.00444   0.00000  -0.00000   0.00060
  26        4YY        -0.00308   0.00245   0.00123  -0.00035  -0.00015
  27        4ZZ        -0.00308   0.00245  -0.00123   0.00035  -0.00015
  28        4XY         0.00000  -0.00000   0.00337  -0.00000   0.00000
  29        4XZ         0.00000  -0.00000  -0.00000   0.00337  -0.00000
  30        4YZ         0.00000  -0.00000  -0.00040  -0.00142  -0.00000
  31 3   H  1S          0.05003   0.02073  -0.02751   0.05973  -0.00209
  32        2S          0.01384   0.01726  -0.02377   0.05161  -0.00205
  33 4   H  1S          0.05003   0.02073  -0.03797  -0.05369  -0.00209
  34        2S          0.01384   0.01726  -0.03281  -0.04639  -0.00205
  35 5   H  1S          0.05004   0.02073   0.06548  -0.00604  -0.00209
  36        2S          0.01384   0.01726   0.05658  -0.00522  -0.00205
  37 6   H  1S         -0.01542   0.01157   0.01143  -0.00105   0.00042
  38        2S         -0.01095   0.01378   0.01630  -0.00150  -0.00110
  39 7   H  1S         -0.01542   0.01157  -0.00663  -0.00937   0.00042
  40        2S         -0.01095   0.01378  -0.00945  -0.01336  -0.00110
  41 8   H  1S         -0.01542   0.01157  -0.00480   0.01043   0.00042
  42        2S         -0.01095   0.01378  -0.00685   0.01486  -0.00110
                          11        12        13        14        15
  11        4YY         0.00106
  12        4ZZ        -0.00027   0.00106
  13        4XY         0.00060  -0.00060   0.00068
  14        4XZ        -0.00017   0.00017  -0.00000   0.00068
  15        4YZ         0.00000  -0.00000  -0.00020  -0.00070   0.00089
  16 2   C  1S          0.00113   0.00113   0.00000   0.00000   0.00000
  17        2S         -0.00243  -0.00243  -0.00000  -0.00000  -0.00000
  18        2PX        -0.00401  -0.00401   0.00000  -0.00000  -0.00000
  19        2PY        -0.00116   0.00116  -0.00516  -0.00000   0.00038
  20        2PZ         0.00033  -0.00033  -0.00000  -0.00516   0.00134
  21        3S         -0.00308  -0.00308  -0.00000  -0.00000  -0.00000
  22        3PX        -0.00245  -0.00245   0.00000  -0.00000  -0.00000
  23        3PY        -0.00123   0.00123  -0.00337  -0.00000   0.00040
  24        3PZ         0.00035  -0.00035  -0.00000  -0.00337   0.00142
  25        4XX        -0.00015  -0.00015   0.00000  -0.00000  -0.00000
  26        4YY         0.00022  -0.00008   0.00036  -0.00010   0.00000
  27        4ZZ        -0.00008   0.00022  -0.00036   0.00010  -0.00000
  28        4XY         0.00036  -0.00036   0.00055  -0.00000  -0.00012
  29        4XZ        -0.00010   0.00010  -0.00000   0.00055  -0.00041
  30        4YZ         0.00000  -0.00000  -0.00012  -0.00041   0.00020
  31 3   H  1S         -0.00162   0.00765  -0.00278   0.00603  -0.00625
  32        2S         -0.00226   0.00575  -0.00251   0.00545  -0.00541
  33 4   H  1S          0.00064   0.00539  -0.00383  -0.00542   0.00776
  34        2S         -0.00031   0.00380  -0.00346  -0.00490   0.00672
  35 5   H  1S          0.01002  -0.00399   0.00661  -0.00061  -0.00150
  36        2S          0.00781  -0.00432   0.00597  -0.00055  -0.00130
  37 6   H  1S          0.00140  -0.00124   0.00378  -0.00035  -0.00028
  38        2S          0.00246  -0.00119   0.00386  -0.00036  -0.00039
  39 7   H  1S         -0.00037   0.00053  -0.00219  -0.00310   0.00146
  40        2S          0.00002   0.00126  -0.00224  -0.00317   0.00202
  41 8   H  1S         -0.00079   0.00096  -0.00159   0.00344  -0.00118
  42        2S         -0.00057   0.00184  -0.00162   0.00352  -0.00163
                          16        17        18        19        20
  16 2   C  1S          1.02894
  17        2S         -0.04143   0.13039
  18        2PX         0.00104   0.00145   0.18198
  19        2PY        -0.00000   0.00000  -0.00000   0.18920
  20        2PZ        -0.00000   0.00000  -0.00000   0.00000   0.18920
  21        3S         -0.08584   0.13179  -0.00745  -0.00000  -0.00000
  22        3PX        -0.00012   0.00078   0.08751  -0.00000   0.00000
  23        3PY         0.00000  -0.00000  -0.00000   0.10297   0.00000
  24        3PZ        -0.00000   0.00000   0.00000   0.00000   0.10297
  25        4XX        -0.00274   0.00181   0.01157  -0.00000   0.00000
  26        4YY        -0.00377   0.00344  -0.00725  -0.01072   0.00304
  27        4ZZ        -0.00377   0.00344  -0.00725   0.01072  -0.00304
  28        4XY        -0.00000   0.00000  -0.00000  -0.01004   0.00000
  29        4XZ         0.00000  -0.00000   0.00000   0.00000  -0.01004
  30        4YZ         0.00000  -0.00000   0.00000   0.00351   0.01238
  31 3   H  1S          0.00368  -0.00783  -0.01315   0.00370  -0.00804
  32        2S          0.00435  -0.00865  -0.02417   0.00820  -0.01781
  33 4   H  1S          0.00368  -0.00783  -0.01315   0.00511   0.00722
  34        2S          0.00435  -0.00865  -0.02417   0.01132   0.01601
  35 5   H  1S          0.00368  -0.00783  -0.01315  -0.00881   0.00081
  36        2S          0.00435  -0.00865  -0.02417  -0.01952   0.00180
  37 6   H  1S         -0.02553   0.04697  -0.04316  -0.11932   0.01100
  38        2S         -0.00435   0.01222  -0.03556  -0.10189   0.00939
  39 7   H  1S         -0.02553   0.04697  -0.04316   0.06919   0.09783
  40        2S         -0.00435   0.01221  -0.03556   0.05908   0.08354
  41 8   H  1S         -0.02553   0.04697  -0.04316   0.05013  -0.10884
  42        2S         -0.00435   0.01221  -0.03556   0.04281  -0.09294
                          21        22        23        24        25
  21        3S          0.13805
  22        3PX        -0.00184   0.04314
  23        3PY        -0.00000  -0.00000   0.05662
  24        3PZ        -0.00000   0.00000  -0.00000   0.05662
  25        4XX         0.00094   0.00529  -0.00000   0.00000   0.00083
  26        4YY         0.00402  -0.00344  -0.00591   0.00167  -0.00042
  27        4ZZ         0.00402  -0.00344   0.00591  -0.00167  -0.00042
  28        4XY         0.00000  -0.00000  -0.00576   0.00000   0.00000
  29        4XZ        -0.00000   0.00000   0.00000  -0.00576   0.00000
  30        4YZ        -0.00000   0.00000   0.00193   0.00682  -0.00000
  31 3   H  1S         -0.01542  -0.01157   0.00480  -0.01043   0.00042
  32        2S         -0.01095  -0.01378   0.00685  -0.01486  -0.00110
  33 4   H  1S         -0.01542  -0.01157   0.00663   0.00937   0.00042
  34        2S         -0.01095  -0.01378   0.00945   0.01336  -0.00110
  35 5   H  1S         -0.01542  -0.01157  -0.01143   0.00105   0.00042
  36        2S         -0.01095  -0.01378  -0.01630   0.00150  -0.00110
  37 6   H  1S          0.05004  -0.02073  -0.06548   0.00604  -0.00209
  38        2S          0.01384  -0.01726  -0.05658   0.00522  -0.00205
  39 7   H  1S          0.05003  -0.02073   0.03797   0.05369  -0.00209
  40        2S          0.01384  -0.01726   0.03281   0.04639  -0.00205
  41 8   H  1S          0.05003  -0.02073   0.02751  -0.05973  -0.00209
  42        2S          0.01384  -0.01726   0.02377  -0.05161  -0.00205
                          26        27        28        29        30
  26        4YY         0.00106
  27        4ZZ        -0.00027   0.00106
  28        4XY         0.00060  -0.00060   0.00068
  29        4XZ        -0.00017   0.00017  -0.00000   0.00068
  30        4YZ         0.00000  -0.00000  -0.00020  -0.00070   0.00089
  31 3   H  1S         -0.00079   0.00096  -0.00159   0.00344  -0.00118
  32        2S         -0.00057   0.00184  -0.00162   0.00352  -0.00163
  33 4   H  1S         -0.00037   0.00053  -0.00219  -0.00310   0.00146
  34        2S          0.00002   0.00126  -0.00224  -0.00317   0.00202
  35 5   H  1S          0.00140  -0.00124   0.00378  -0.00035  -0.00028
  36        2S          0.00246  -0.00119   0.00386  -0.00036  -0.00039
  37 6   H  1S          0.01002  -0.00399   0.00661  -0.00061  -0.00150
  38        2S          0.00781  -0.00432   0.00597  -0.00055  -0.00130
  39 7   H  1S          0.00064   0.00539  -0.00383  -0.00542   0.00776
  40        2S         -0.00031   0.00380  -0.00346  -0.00490   0.00672
  41 8   H  1S         -0.00162   0.00765  -0.00278   0.00603  -0.00625
  42        2S         -0.00226   0.00575  -0.00251   0.00545  -0.00541
                          31        32        33        34        35
  31 3   H  1S          0.10391
  32        2S          0.07884   0.06572
  33 4   H  1S         -0.01069  -0.01996   0.10391
  34        2S         -0.01996  -0.02060   0.07884   0.06572
  35 5   H  1S         -0.01069  -0.01996  -0.01069  -0.01996   0.10391
  36        2S         -0.01996  -0.02060  -0.01996  -0.02060   0.07884
  37 6   H  1S         -0.00556  -0.00621  -0.00556  -0.00621   0.01222
  38        2S         -0.00621  -0.00659  -0.00621  -0.00659   0.02043
  39 7   H  1S         -0.00556  -0.00621   0.01222   0.02043  -0.00556
  40        2S         -0.00621  -0.00659   0.02043   0.02595  -0.00621
  41 8   H  1S          0.01222   0.02043  -0.00556  -0.00621  -0.00556
  42        2S          0.02043   0.02595  -0.00621  -0.00659  -0.00621
                          36        37        38        39        40
  36        2S          0.06572
  37 6   H  1S          0.02043   0.10391
  38        2S          0.02595   0.07884   0.06572
  39 7   H  1S         -0.00621  -0.01069  -0.01996   0.10391
  40        2S         -0.00659  -0.01996  -0.02060   0.07884   0.06572
  41 8   H  1S         -0.00621  -0.01069  -0.01996  -0.01069  -0.01996
  42        2S         -0.00659  -0.01996  -0.02060  -0.01996  -0.02060
                          41        42
  41 8   H  1S          0.10391
  42        2S          0.07884   0.06572
    Full Mulliken population analysis:
                           1         2         3         4         5
   1 1   C  1S          2.05788
   2        2S         -0.01815   0.26079
   3        2PX         0.00000   0.00000   0.36397
   4        2PY         0.00000   0.00000  -0.00000   0.37840
   5        2PZ         0.00000   0.00000  -0.00000   0.00000   0.37840
   6        3S         -0.03163   0.21410   0.00000   0.00000   0.00000
   7        3PX         0.00000   0.00000   0.09972  -0.00000   0.00000
   8        3PY         0.00000   0.00000  -0.00000   0.11733   0.00000
   9        3PZ         0.00000   0.00000   0.00000   0.00000   0.11733
  10        4XX        -0.00043   0.00257   0.00000   0.00000   0.00000
  11        4YY        -0.00060   0.00489   0.00000   0.00000   0.00000
  12        4ZZ        -0.00060   0.00489   0.00000   0.00000   0.00000
  13        4XY        -0.00000   0.00000   0.00000   0.00000   0.00000
  14        4XZ         0.00000  -0.00000   0.00000   0.00000   0.00000
  15        4YZ         0.00000  -0.00000   0.00000   0.00000   0.00000
  16 2   C  1S          0.00000  -0.00016  -0.00126  -0.00000  -0.00000
  17        2S         -0.00016   0.00485   0.02411   0.00000   0.00000
  18        2PX        -0.00126   0.02411   0.07779   0.00000   0.00000
  19        2PY        -0.00000   0.00000   0.00000   0.00022  -0.00000
  20        2PZ        -0.00000   0.00000   0.00000  -0.00000   0.00022
  21        3S          0.00035   0.00010   0.02935   0.00000   0.00000
  22        3PX        -0.00169   0.01960   0.03487   0.00000   0.00000
  23        3PY        -0.00000   0.00000   0.00000  -0.00369  -0.00000
  24        3PZ        -0.00000   0.00000   0.00000   0.00000  -0.00369
  25        4XX        -0.00016   0.00320   0.00569   0.00000   0.00000
  26        4YY         0.00000  -0.00025  -0.00071  -0.00000   0.00000
  27        4ZZ         0.00000  -0.00025  -0.00071  -0.00000   0.00000
  28        4XY        -0.00000   0.00000  -0.00000   0.00114  -0.00000
  29        4XZ        -0.00000   0.00000   0.00000  -0.00000   0.00114
  30        4YZ         0.00000  -0.00000  -0.00000  -0.00000   0.00000
  31 3   H  1S         -0.00163   0.02539   0.01150   0.01430   0.06739
  32        2S         -0.00080   0.01157   0.00688   0.00886   0.04177
  33 4   H  1S         -0.00163   0.02539   0.01150   0.02723   0.05445
  34        2S         -0.00080   0.01157   0.00688   0.01688   0.03375
  35 5   H  1S         -0.00163   0.02539   0.01150   0.08100   0.00069
  36        2S         -0.00080   0.01157   0.00688   0.05021   0.00043
  37 6   H  1S          0.00000  -0.00010  -0.00033  -0.00012  -0.00000
  38        2S          0.00011  -0.00175  -0.00455  -0.00194  -0.00002
  39 7   H  1S          0.00000  -0.00010  -0.00033  -0.00004  -0.00008
  40        2S          0.00011  -0.00175  -0.00455  -0.00065  -0.00131
  41 8   H  1S          0.00000  -0.00010  -0.00033  -0.00002  -0.00010
  42        2S          0.00011  -0.00175  -0.00455  -0.00034  -0.00162
                           6         7         8         9        10
   6        3S          0.27609
   7        3PX         0.00000   0.08627
   8        3PY         0.00000  -0.00000   0.11325
   9        3PZ         0.00000   0.00000  -0.00000   0.11325
  10        4XX         0.00118   0.00000   0.00000   0.00000   0.00167
  11        4YY         0.00506   0.00000   0.00000   0.00000  -0.00028
  12        4ZZ         0.00506   0.00000   0.00000   0.00000  -0.00028
  13        4XY         0.00000   0.00000   0.00000   0.00000   0.00000
  14        4XZ        -0.00000   0.00000   0.00000   0.00000   0.00000
  15        4YZ        -0.00000   0.00000   0.00000   0.00000   0.00000
  16 2   C  1S          0.00035  -0.00169  -0.00000  -0.00000  -0.00016
  17        2S          0.00010   0.01960   0.00000   0.00000   0.00320
  18        2PX         0.02935   0.03487   0.00000   0.00000   0.00569
  19        2PY         0.00000   0.00000  -0.00369   0.00000   0.00000
  20        2PZ         0.00000   0.00000   0.00000  -0.00369   0.00000
  21        3S         -0.02004   0.02376   0.00000  -0.00000   0.00412
  22        3PX         0.02376   0.01577   0.00000   0.00000   0.00367
  23        3PY         0.00000   0.00000  -0.01093  -0.00000   0.00000
  24        3PZ         0.00000   0.00000   0.00000  -0.01093   0.00000
  25        4XX         0.00412   0.00367   0.00000   0.00000   0.00049
  26        4YY        -0.00123  -0.00190   0.00000   0.00000  -0.00003
  27        4ZZ        -0.00123  -0.00190  -0.00000  -0.00000  -0.00003
  28        4XY        -0.00000  -0.00000   0.00096  -0.00000  -0.00000
  29        4XZ         0.00000   0.00000  -0.00000   0.00096  -0.00000
  30        4YZ        -0.00000  -0.00000  -0.00000   0.00000   0.00000
  31 3   H  1S          0.03752   0.00777   0.01103   0.05201  -0.00067
  32        2S          0.01943   0.00733   0.01081   0.05095  -0.00148
  33 4   H  1S          0.03752   0.00777   0.02102   0.04202  -0.00067
  34        2S          0.01943   0.00733   0.02059   0.04117  -0.00148
  35 5   H  1S          0.03752   0.00777   0.06251   0.00053  -0.00067
  36        2S          0.01944   0.00733   0.06124   0.00052  -0.00148
  37 6   H  1S         -0.00209  -0.00375  -0.00196  -0.00002   0.00001
  38        2S         -0.00544  -0.00997  -0.00624  -0.00005  -0.00024
  39 7   H  1S         -0.00209  -0.00375  -0.00066  -0.00132   0.00001
  40        2S         -0.00544  -0.00997  -0.00210  -0.00419  -0.00024
  41 8   H  1S         -0.00209  -0.00375  -0.00035  -0.00163   0.00001
  42        2S         -0.00544  -0.00997  -0.00110  -0.00519  -0.00024
                          11        12        13        14        15
  11        4YY         0.00211
  12        4ZZ        -0.00018   0.00211
  13        4XY         0.00000  -0.00000   0.00136
  14        4XZ         0.00000  -0.00000   0.00000   0.00136
  15        4YZ        -0.00000   0.00000   0.00000  -0.00000   0.00177
  16 2   C  1S          0.00000   0.00000  -0.00000   0.00000  -0.00000
  17        2S         -0.00025  -0.00025   0.00000  -0.00000   0.00000
  18        2PX        -0.00071  -0.00071  -0.00000  -0.00000   0.00000
  19        2PY        -0.00000  -0.00000   0.00114   0.00000  -0.00000
  20        2PZ         0.00000   0.00000   0.00000   0.00114   0.00000
  21        3S         -0.00123  -0.00123   0.00000  -0.00000   0.00000
  22        3PX        -0.00190  -0.00190  -0.00000  -0.00000   0.00000
  23        3PY         0.00000  -0.00000   0.00096   0.00000  -0.00000
  24        3PZ         0.00000  -0.00000   0.00000   0.00096   0.00000
  25        4XX        -0.00003  -0.00003  -0.00000  -0.00000   0.00000
  26        4YY         0.00002  -0.00000   0.00000  -0.00000   0.00000
  27        4ZZ        -0.00000   0.00002   0.00000  -0.00000  -0.00000
  28        4XY         0.00000   0.00000  -0.00023   0.00000   0.00000
  29        4XZ        -0.00000  -0.00000   0.00000  -0.00023  -0.00000
  30        4YZ         0.00000  -0.00000   0.00000  -0.00000   0.00001
  31 3   H  1S         -0.00054   0.00545   0.00046   0.00216   0.00240
  32        2S         -0.00164   0.00469   0.00010   0.00047   0.00050
  33 4   H  1S          0.00027   0.00334   0.00087   0.00174   0.00369
  34        2S         -0.00023   0.00301   0.00019   0.00038   0.00077
  35 5   H  1S          0.00812  -0.00094   0.00260   0.00002   0.00014
  36        2S          0.00654  -0.00302   0.00057   0.00000   0.00003
  37 6   H  1S          0.00001  -0.00000   0.00007   0.00000   0.00000
  38        2S          0.00038  -0.00015   0.00032   0.00000   0.00000
  39 7   H  1S         -0.00000   0.00000   0.00002   0.00004   0.00001
  40        2S          0.00000   0.00018   0.00011   0.00022   0.00004
  41 8   H  1S         -0.00000   0.00001   0.00001   0.00006   0.00000
  42        2S         -0.00008   0.00028   0.00006   0.00027   0.00003
                          16        17        18        19        20
  16 2   C  1S          2.05788
  17        2S         -0.01815   0.26079
  18        2PX         0.00000   0.00000   0.36397
  19        2PY         0.00000   0.00000  -0.00000   0.37840
  20        2PZ         0.00000   0.00000   0.00000  -0.00000   0.37840
  21        3S         -0.03163   0.21410   0.00000   0.00000   0.00000
  22        3PX         0.00000   0.00000   0.09972  -0.00000  -0.00000
  23        3PY         0.00000   0.00000  -0.00000   0.11733  -0.00000
  24        3PZ         0.00000   0.00000  -0.00000  -0.00000   0.11733
  25        4XX        -0.00043   0.00257   0.00000   0.00000   0.00000
  26        4YY        -0.00060   0.00489   0.00000   0.00000   0.00000
  27        4ZZ        -0.00060   0.00489   0.00000   0.00000   0.00000
  28        4XY        -0.00000   0.00000   0.00000   0.00000   0.00000
  29        4XZ        -0.00000   0.00000   0.00000   0.00000   0.00000
  30        4YZ        -0.00000   0.00000   0.00000   0.00000   0.00000
  31 3   H  1S          0.00000  -0.00010  -0.00033  -0.00002  -0.00010
  32        2S          0.00011  -0.00175  -0.00455  -0.00034  -0.00162
  33 4   H  1S          0.00000  -0.00010  -0.00033  -0.00004  -0.00008
  34        2S          0.00011  -0.00175  -0.00455  -0.00065  -0.00131
  35 5   H  1S          0.00000  -0.00010  -0.00033  -0.00012  -0.00000
  36        2S          0.00011  -0.00175  -0.00455  -0.00194  -0.00002
  37 6   H  1S         -0.00163   0.02539   0.01150   0.08100   0.00069
  38        2S         -0.00080   0.01157   0.00688   0.05021   0.00043
  39 7   H  1S         -0.00163   0.02539   0.01150   0.02723   0.05445
  40        2S         -0.00080   0.01157   0.00688   0.01688   0.03375
  41 8   H  1S         -0.00163   0.02539   0.01150   0.01430   0.06739
  42        2S         -0.00080   0.01157   0.00688   0.00886   0.04177
                          21        22        23        24        25
  21        3S          0.27609
  22        3PX         0.00000   0.08627
  23        3PY         0.00000  -0.00000   0.11325
  24        3PZ         0.00000  -0.00000   0.00000   0.11325
  25        4XX         0.00118   0.00000   0.00000   0.00000   0.00167
  26        4YY         0.00506   0.00000   0.00000   0.00000  -0.00028
  27        4ZZ         0.00506   0.00000   0.00000   0.00000  -0.00028
  28        4XY         0.00000   0.00000   0.00000   0.00000   0.00000
  29        4XZ         0.00000   0.00000   0.00000   0.00000  -0.00000
  30        4YZ         0.00000   0.00000   0.00000   0.00000   0.00000
  31 3   H  1S         -0.00209  -0.00375  -0.00035  -0.00163   0.00001
  32        2S         -0.00544  -0.00997  -0.00110  -0.00519  -0.00024
  33 4   H  1S         -0.00209  -0.00375  -0.00066  -0.00132   0.00001
  34        2S         -0.00544  -0.00997  -0.00210  -0.00419  -0.00024
  35 5   H  1S         -0.00209  -0.00375  -0.00196  -0.00002   0.00001
  36        2S         -0.00544  -0.00997  -0.00624  -0.00005  -0.00024
  37 6   H  1S          0.03752   0.00777   0.06251   0.00053  -0.00067
  38        2S          0.01944   0.00733   0.06124   0.00052  -0.00148
  39 7   H  1S          0.03752   0.00777   0.02102   0.04202  -0.00067
  40        2S          0.01943   0.00733   0.02059   0.04117  -0.00148
  41 8   H  1S          0.03752   0.00777   0.01103   0.05201  -0.00067
  42        2S          0.01943   0.00733   0.01081   0.05095  -0.00148
                          26        27        28        29        30
  26        4YY         0.00211
  27        4ZZ        -0.00018   0.00211
  28        4XY         0.00000  -0.00000   0.00136
  29        4XZ         0.00000  -0.00000   0.00000   0.00136
  30        4YZ        -0.00000   0.00000   0.00000  -0.00000   0.00177
  31 3   H  1S         -0.00000   0.00001   0.00001   0.00006   0.00000
  32        2S         -0.00008   0.00028   0.00006   0.00027   0.00003
  33 4   H  1S         -0.00000   0.00000   0.00002   0.00004   0.00001
  34        2S          0.00000   0.00018   0.00011   0.00022   0.00004
  35 5   H  1S          0.00001  -0.00000   0.00007   0.00000   0.00000
  36        2S          0.00038  -0.00015   0.00032   0.00000   0.00000
  37 6   H  1S          0.00812  -0.00094   0.00260   0.00002   0.00014
  38        2S          0.00654  -0.00302   0.00057   0.00000   0.00003
  39 7   H  1S          0.00027   0.00334   0.00087   0.00174   0.00369
  40        2S         -0.00023   0.00301   0.00019   0.00038   0.00077
  41 8   H  1S         -0.00054   0.00545   0.00046   0.00216   0.00240
  42        2S         -0.00164   0.00469   0.00010   0.00047   0.00050
                          31        32        33        34        35
  31 3   H  1S          0.20783
  32        2S          0.10380   0.13145
  33 4   H  1S         -0.00042  -0.00608   0.20783
  34        2S         -0.00608  -0.01676   0.10380   0.13145
  35 5   H  1S         -0.00042  -0.00608  -0.00042  -0.00608   0.20783
  36        2S         -0.00608  -0.01676  -0.00608  -0.01676   0.10380
  37 6   H  1S         -0.00000  -0.00041  -0.00000  -0.00041   0.00000
  38        2S         -0.00041  -0.00207  -0.00041  -0.00207   0.00031
  39 7   H  1S         -0.00000  -0.00041   0.00000   0.00031  -0.00000
  40        2S         -0.00041  -0.00207   0.00031   0.00332  -0.00041
  41 8   H  1S          0.00000   0.00031  -0.00000  -0.00041  -0.00000
  42        2S          0.00031   0.00332  -0.00041  -0.00207  -0.00041
                          36        37        38        39        40
  36        2S          0.13145
  37 6   H  1S          0.00031   0.20783
  38        2S          0.00332   0.10380   0.13145
  39 7   H  1S         -0.00041  -0.00042  -0.00608   0.20783
  40        2S         -0.00207  -0.00608  -0.01676   0.10380   0.13145
  41 8   H  1S         -0.00041  -0.00042  -0.00608  -0.00042  -0.00608
  42        2S         -0.00207  -0.00608  -0.01676  -0.00608  -0.01676
                          41        42
  41 8   H  1S          0.20783
  42        2S          0.10380   0.13145
     Gross orbital populations:
                         Total     Alpha     Beta      Spin
   1 1   C  1S          1.99659   0.99829   0.99829   0.00000
   2        2S          0.62561   0.31280   0.31280   0.00000
   3        2PX         0.67330   0.33665   0.33665   0.00000
   4        2PY         0.68877   0.34438   0.34438   0.00000
   5        2PZ         0.68877   0.34438   0.34438   0.00000
   6        3S          0.65332   0.32666   0.32666   0.00000
   7        3PX         0.28230   0.14115   0.14115   0.00000
   8        3PY         0.39173   0.19586   0.19586   0.00000
   9        3PZ         0.39173   0.19586   0.19586   0.00000
  10        4XX         0.01422   0.00711   0.00711   0.00000
  11        4YY         0.01974   0.00987   0.00987   0.00000
  12        4ZZ         0.01974   0.00987   0.00987   0.00000
  13        4XY         0.00860   0.00430   0.00430   0.00000
  14        4XZ         0.00860   0.00430   0.00430   0.00000
  15        4YZ         0.00940   0.00470   0.00470   0.00000
  16 2   C  1S          1.99659   0.99829   0.99829   0.00000
  17        2S          0.62561   0.31280   0.31280   0.00000
  18        2PX         0.67330   0.33665   0.33665   0.00000
  19        2PY         0.68877   0.34438   0.34438   0.00000
  20        2PZ         0.68877   0.34438   0.34438   0.00000
  21        3S          0.65332   0.32666   0.32666   0.00000
  22        3PX         0.28230   0.14115   0.14115   0.00000
  23        3PY         0.39173   0.19586   0.19586   0.00000
  24        3PZ         0.39173   0.19586   0.19586   0.00000
  25        4XX         0.01422   0.00711   0.00711   0.00000
  26        4YY         0.01974   0.00987   0.00987   0.00000
  27        4ZZ         0.01974   0.00987   0.00987   0.00000
  28        4XY         0.00860   0.00430   0.00430   0.00000
  29        4XZ         0.00860   0.00430   0.00430   0.00000
  30        4YZ         0.00941   0.00470   0.00470   0.00000
  31 3   H  1S          0.52437   0.26219   0.26219   0.00000
  32        2S          0.31816   0.15908   0.15908   0.00000
  33 4   H  1S          0.52437   0.26219   0.26219   0.00000
  34        2S          0.31816   0.15908   0.15908   0.00000
  35 5   H  1S          0.52437   0.26219   0.26219   0.00000
  36        2S          0.31816   0.15908   0.15908   0.00000
  37 6   H  1S          0.52437   0.26219   0.26219   0.00000
  38        2S          0.31816   0.15908   0.15908   0.00000
  39 7   H  1S          0.52437   0.26219   0.26219   0.00000
  40        2S          0.31816   0.15908   0.15908   0.00000
  41 8   H  1S          0.52437   0.26219   0.26219   0.00000
  42        2S          0.31816   0.15908   0.15908   0.00000
          Condensed to atoms (all electrons):
               1          2          3          4          5          6
     1  C    5.078652   0.325225   0.393983   0.393983   0.393982  -0.037808
     2  C    0.325225   5.078653  -0.037809  -0.037809  -0.037808   0.393982
     3  H    0.393983  -0.037809   0.546885  -0.029347  -0.029348  -0.002890
     4  H    0.393983  -0.037809  -0.029347   0.546885  -0.029347  -0.002891
     5  H    0.393982  -0.037808  -0.029348  -0.029347   0.546885   0.003950
     6  H   -0.037808   0.393982  -0.002890  -0.002891   0.003950   0.546884
     7  H   -0.037809   0.393982  -0.002891   0.003950  -0.002890  -0.029347
     8  H   -0.037809   0.393982   0.003950  -0.002891  -0.002891  -0.029347
               7          8
     1  C   -0.037809  -0.037809
     2  C    0.393982   0.393982
     3  H   -0.002891   0.003950
     4  H    0.003950  -0.002891
     5  H   -0.002890  -0.002891
     6  H   -0.029347  -0.029347
     7  H    0.546886  -0.029348
     8  H   -0.029348   0.546885
          Atomic-Atomic Spin Densities.
               1          2          3          4          5          6
     1  C    0.000000   0.000000   0.000000   0.000000   0.000000   0.000000
     2  C    0.000000   0.000000   0.000000   0.000000   0.000000   0.000000
     3  H    0.000000   0.000000   0.000000   0.000000   0.000000   0.000000
     4  H    0.000000   0.000000   0.000000   0.000000   0.000000   0.000000
     5  H    0.000000   0.000000   0.000000   0.000000   0.000000   0.000000
     6  H    0.000000   0.000000   0.000000   0.000000   0.000000   0.000000
     7  H    0.000000   0.000000   0.000000   0.000000   0.000000   0.000000
     8  H    0.000000   0.000000   0.000000   0.000000   0.000000   0.000000
               7          8
     1  C    0.000000   0.000000
     2  C    0.000000   0.000000
     3  H    0.000000   0.000000
     4  H    0.000000   0.000000
     5  H    0.000000   0.000000
     6  H    0.000000   0.000000
     7  H    0.000000   0.000000
     8  H    0.000000   0.000000
 Mulliken charges and spin densities:
               1          2
     1  C   -0.472400   0.000000
     2  C   -0.472400   0.000000
     3  H    0.157467   0.000000
     4  H    0.157467   0.000000
     5  H    0.157466   0.000000
     6  H    0.157467   0.000000
     7  H    0.157467   0.000000
     8  H    0.157467   0.000000
 Sum of Mulliken charges =   0.00000   0.00000
 Mulliken charges and spin densities with hydrogens summed into heavy atoms:
               1          2
     1  C    0.000000   0.000000
     2  C   -0.000000   0.000000
 Electronic spatial extent (au):  <R**2>=            109.7816
 Charge=              0.0000 electrons
 Dipole moment (field-independent basis, Debye):
    X=              0.0000    Y=              0.0000    Z=              0.0000  Tot=              0.0000
 Quadrupole moment (field-independent basis, Debye-Ang):
   XX=            -15.5938   YY=            -14.9662   ZZ=            -14.9662
   XY=              0.0000   XZ=              0.0000   YZ=             -0.0000
 Traceless Quadrupole moment (field-independent basis, Debye-Ang):
   XX=             -0.4184   YY=              0.2092   ZZ=              0.2092
   XY=              0.0000   XZ=              0.0000   YZ=             -0.0000
 Octapole moment (field-independent basis, Debye-Ang**2):
  XXX=              0.0000  YYY=             -0.0000  ZZZ=              0.0000  XYY=             -0.0000
  XXY=              0.0000  XXZ=              0.0000  XZZ=              0.0000  YZZ=              0.0000
  YYZ=             -0.0000  XYZ=              0.0000
 Hexadecapole moment (field-independent basis, Debye-Ang**3):
 XXXX=            -93.4556 YYYY=            -29.0207 ZZZZ=            -29.0206 XXXY=              0.0001
 XXXZ=              0.0000 YYYX=              1.2107 YYYZ=              0.0000 ZZZX=              0.3427
 ZZZY=             -0.0000 XXYY=            -19.4069 XXZZ=            -19.4069 YYZZ=             -9.6735
 XXYZ=             -0.0000 YYXZ=             -0.3427 ZZXY=             -1.2107
 N-N= 4.223181292302D+01 E-N=-2.681337450578D+02  KE= 7.912662216425D+01
 Orbital energies and kinetic energies (alpha):
                                 1                 2
   5         O                -0.595754          0.891109
   6         O                -0.595753          0.891107
   7         O                -0.511288          1.201314
   8         O                -0.484775          1.026688
   9         O                -0.484775          1.026686
  10         V                 0.241569          0.791485
  11         V                 0.300734          1.026729
  12         V                 0.314041          0.791405
  13         V                 0.314042          0.791405
  14         V                 0.337648          0.727650
 Orbital energies and kinetic energies (beta):
                                 1                 2
   5         O                -0.595754          0.891109
   6         O                -0.595753          0.891107
   7         O                -0.511288          1.201314
   8         O                -0.484775          1.026688
   9         O                -0.484775          1.026686
  10         V                 0.241569          0.791485
  11         V                 0.300734          1.026729
  12         V                 0.314041          0.791405
  13         V                 0.314042          0.791405
  14         V                 0.337648          0.727650
 Total kinetic energy from orbitals= 7.912662216425D+01
 Leave Link  601 at Mon Nov  7 20:28:37 2022, MaxMem=  4294967296 cpu:               0.6 elap:               0.0
 (Enter /gpfs1/apps/software/Gaussian16/AVX/g16/l9999.exe)
 Unable to Open any file for archive entry.
 1\1\GINC-KENNEDY107\SP\UMP5-FC\6-31G(d)\C2H6\OSL\07-Nov-2022\0\\#p SP 
 MP5/6-31G* Symmetry=(Tight) Population=(Regular) Density=(SCF)\\Ethane
 _Single_Point_Singlet_MP5_Gas_Phase_6_31G_\\0,1\C,0,0.761,0.,0.\C,0,-0
 .761,0.,0.\H,0,1.15966,0.9437,0.3877\H,0,1.15966,-0.80761,0.62342\H,0,
 1.15967,-0.13609,-1.01112\H,0,-1.15967,0.13609,1.01112\H,0,-1.15966,0.
 80761,-0.62342\H,0,-1.15966,-0.9437,-0.38771\\Version=ES64L-G16RevC.01
 \State=1-A\HF=-79.228366\MP2=-79.494715\MP3=-79.5208788\MP4D=-79.52827
 16\MP4DQ=-79.5246004\MP4SDTQ=-79.5328297\MP5=-79.5339294\PUHF=-79.2283
 66\PMP2-0=-79.494715\PMP3-0=-79.5208788\S2=0.\S2-1=0.\S2A=0.\RMSD=1.58
 0e-09\PG=C01 [X(C2H6)]\\@
 The archive entry for this job was punched.


 IT IS A SIMPLE TASK TO MAKE THINGS COMPLEX,
 BUT A COMPLEX TASK TO MAKE THEM SIMPLE.
 Job cpu time:       0 days  0 hours  6 minutes 50.5 seconds.
 Elapsed time:       0 days  0 hours  0 minutes 29.0 seconds.
 File lengths (MBytes):  RWF=    376 Int=      0 D2E=      0 Chk=      2 Scr=      2
 Normal termination of Gaussian 16 at Mon Nov  7 20:28:37 2022.
