 Entering Gaussian System, Link 0=/home/users/astar/bmsi/zhangx5/programs/g16/g16
 Input=/home/users/astar/bmsi/zhangx5/scratch/TS_5coord_L2_subst_opt/TS_5coord_L2_subst_opt.com
 Output=/home/users/astar/bmsi/zhangx5/scratch/TS_5coord_L2_subst_opt/TS_5coord_L2_subst_opt.log
 Initial command:
 /home/users/astar/bmsi/zhangx5/programs/g16/l1.exe "/scratch/users/astar/bmsi/zhangx5/TS_5coord_L2_subst_opt/Gau-3697658.inp" -scrdir="/scratch/users/astar/bmsi/zhangx5/TS_5coord_L2_subst_opt/"
 Entering Link 1 = /home/users/astar/bmsi/zhangx5/programs/g16/l1.exe PID=   3697660.
  
 Copyright (c) 1988-2017, Gaussian, Inc.  All Rights Reserved.
  
 This is part of the Gaussian(R) 16 program.  It is based on
 the Gaussian(R) 09 system (copyright 2009, Gaussian, Inc.),
 the Gaussian(R) 03 system (copyright 2003, Gaussian, Inc.),
 the Gaussian(R) 98 system (copyright 1998, Gaussian, Inc.),
 the Gaussian(R) 94 system (copyright 1995, Gaussian, Inc.),
 the Gaussian 92(TM) system (copyright 1992, Gaussian, Inc.),
 the Gaussian 90(TM) system (copyright 1990, Gaussian, Inc.),
 the Gaussian 88(TM) system (copyright 1988, Gaussian, Inc.),
 the Gaussian 86(TM) system (copyright 1986, Carnegie Mellon
 University), and the Gaussian 82(TM) system (copyright 1983,
 Carnegie Mellon University). Gaussian is a federally registered
 trademark of Gaussian, Inc.
  
 This software contains proprietary and confidential information,
 including trade secrets, belonging to Gaussian, Inc.
  
 This software is provided under written license and may be
 used, copied, transmitted, or stored only in accord with that
 written license.
  
 The following legend is applicable only to US Government
 contracts under FAR:
  
                    RESTRICTED RIGHTS LEGEND
  
 Use, reproduction and disclosure by the US Government is
 subject to restrictions as set forth in subparagraphs (a)
 and (c) of the Commercial Computer Software - Restricted
 Rights clause in FAR 52.227-19.
  
 Gaussian, Inc.
 340 Quinnipiac St., Bldg. 40, Wallingford CT 06492
  
  
 ---------------------------------------------------------------
 Warning -- This program may not be used in any manner that
 competes with the business of Gaussian, Inc. or will provide
 assistance to any competitor of Gaussian, Inc.  The licensee
 of this program is prohibited from giving any competitor of
 Gaussian, Inc. access to this program.  By using this program,
 the user acknowledges that Gaussian, Inc. is engaged in the
 business of creating and licensing software in the field of
 computational chemistry and represents and warrants to the
 licensee that it is not a competitor of Gaussian, Inc. and that
 it will not use this program in any manner prohibited above.
 ---------------------------------------------------------------
  

 Cite this work as:
 Gaussian 16, Revision B.01,
 M. J. Frisch, G. W. Trucks, H. B. Schlegel, G. E. Scuseria, 
 M. A. Robb, J. R. Cheeseman, G. Scalmani, V. Barone, 
 G. A. Petersson, H. Nakatsuji, X. Li, M. Caricato, A. V. Marenich, 
 J. Bloino, B. G. Janesko, R. Gomperts, B. Mennucci, H. P. Hratchian, 
 J. V. Ortiz, A. F. Izmaylov, J. L. Sonnenberg, D. Williams-Young, 
 F. Ding, F. Lipparini, F. Egidi, J. Goings, B. Peng, A. Petrone, 
 T. Henderson, D. Ranasinghe, V. G. Zakrzewski, J. Gao, N. Rega, 
 G. Zheng, W. Liang, M. Hada, M. Ehara, K. Toyota, R. Fukuda, 
 J. Hasegawa, M. Ishida, T. Nakajima, Y. Honda, O. Kitao, H. Nakai, 
 T. Vreven, K. Throssell, J. A. Montgomery, Jr., J. E. Peralta, 
 F. Ogliaro, M. J. Bearpark, J. J. Heyd, E. N. Brothers, K. N. Kudin, 
 V. N. Staroverov, T. A. Keith, R. Kobayashi, J. Normand, 
 K. Raghavachari, A. P. Rendell, J. C. Burant, S. S. Iyengar, 
 J. Tomasi, M. Cossi, J. M. Millam, M. Klene, C. Adamo, R. Cammi, 
 J. W. Ochterski, R. L. Martin, K. Morokuma, O. Farkas, 
 J. B. Foresman, and D. J. Fox, Gaussian, Inc., Wallingford CT, 2016.
 
 ******************************************
 Gaussian 16:  ES64L-G16RevB.01 20-Dec-2017
                 1-Feb-2024 
 ******************************************
 %chk=TS_5coord_L2_subst_opt.chk
 %nprocshared=64
 Will use up to   64 processors via shared memory.
 %mem=64GB
 -------------------------------------------------------
 # opt freq m06 def2svp scrf=(smd,solvent=chlorobenzene)
 -------------------------------------------------------
 1/18=20,19=15,26=3,38=1/1,3;
 2/9=110,12=2,17=6,18=5,40=1/2;
 3/5=43,7=101,11=2,25=1,30=1,70=32201,71=1,72=14,74=-54/1,2,3;
 4//1;
 5/5=2,38=5,53=14/2;
 6/7=2,8=2,9=2,10=2,28=1/1;
 7//1,2,3,16;
 1/18=20,19=15,26=3/3(2);
 2/9=110/2;
 99//99;
 2/9=110/2;
 3/5=43,7=101,11=2,25=1,30=1,70=32205,71=1,72=14,74=-54/1,2,3;
 4/5=5,16=3,69=1/1;
 5/5=2,38=5,53=14/2;
 7//1,2,3,16;
 1/18=20,19=15,26=3/3(-5);
 2/9=110/2;
 6/7=2,8=2,9=2,10=2,19=2,28=1/1;
 99/9=1/99;
 ------------
 Gaussian job
 ------------
 Symbolic Z-matrix:
 Charge =  0 Multiplicity = 1
 Ni                   -1   -1.75672  -1.70676   0.31049 
 P                    -1   -2.11853   0.56829  -0.12538 
 O                    -1   -2.1751    1.99399   2.42428 
 O                    -1   -4.68313   1.36132  -1.43701 
 O                    -1   -2.37197   2.87376  -2.18037 
 O                    -1   -1.50711  -1.73816  -1.76292 
 O                    -1    0.18486  -1.13933   0.37933 
 C                    -1   -4.47792   2.12587  -0.34584 
 C                    -1    0.50034   0.10779   0.41154 
 C                    -1    1.86908   0.50509   0.56887 
 C                    -1   -3.31277   1.8478    0.39158 
 C                    -1   -1.99664   0.57258  -1.97417 
 C                    -1   -0.442     1.16711   0.26161 
 C                    -1   -0.71223  -2.82682  -2.21155 
 H                    -1   -1.26564  -3.44771  -2.93742 
 H                    -1   -0.4691   -3.43254  -1.32901 
 H                    -1    0.2258   -2.46087  -2.65473 
 C                    -1   -5.56563   1.80034  -2.43219 
 H                    -1   -5.41761   1.14822  -3.30575 
 H                    -1   -5.35808   2.84513  -2.72942 
 H                    -1   -6.62299   1.72672  -2.11834 
 C                    -1   -5.36626   3.12738   0.06024 
 H                    -1   -6.25295   3.36094  -0.53371 
 C                    -1    2.21105   1.8464    0.64182 
 H                    -1    3.26781   2.10449   0.77697 
 C                    -1    1.26857   2.88897   0.52888 
 C                    -1   -1.67489   2.76985   3.47928 
 H                    -1   -0.76687   2.26592   3.84195 
 H                    -1   -2.39061   2.85149   4.31779 
 H                    -1   -1.40188   3.78708   3.14104 
 C                    -1   -2.44207   4.0632   -2.91845 
 H                    -1   -1.47042   4.32073  -3.37883 
 H                    -1   -2.72083   4.85864  -2.21237 
 H                    -1   -3.20795   4.01764  -3.71419 
 C                    -1   -2.09135   1.71308  -2.79908 
 C                    -1   -1.89112   1.62107  -4.18132 
 H                    -1   -1.9717    2.50412  -4.81859 
 C                    -1   -1.56523   0.38843  -4.74253 
 H                    -1   -1.40569   0.31567  -5.82254 
 C                    -1   -0.05617   2.51061   0.31723 
 H                    -1   -0.83318   3.27168   0.18705 
 C                    -1   -5.12706   3.80622   1.25325 
 H                    -1   -5.81938   4.59083   1.57319 
 C                    -1   -4.0444    3.47698   2.0625 
 H                    -1   -3.89884   3.9785    3.02203 
 C                    -1   -3.16961   2.46488   1.64885 
 C                    -1   -1.63976  -0.64096  -2.57571 
 C                    -1   -1.42821  -0.74691  -3.95559 
 H                    -1   -1.16112  -1.70236  -4.41094 
 C                    -1   -2.51544  -4.49497   0.59778 
 C                    -1   -3.22028  -5.65995   0.31862 
 C                    -1   -4.35345  -5.58122  -0.48513 
 C                    -1   -4.73753  -4.33809  -0.98205 
 C                    -1   -3.97245  -3.22415  -0.66138 
 N                    -1   -2.88084  -3.29966   0.11503 
 H                    -1   -4.93192  -6.47839  -0.72225 
 H                    -1   -2.87743  -6.61224   0.72943 
 H                    -1   -5.62089  -4.22546  -1.61463 
 H                    -1   -4.23259  -2.22761  -1.03905 
 C                    -1   -1.91175  -1.65789   2.20996 
 H                    -1   -1.31691  -2.51838   2.58614 
 H                    -1   -1.36804  -0.74741   2.52998 
 Si                   -1   -3.59684  -1.6786    3.0214 
 C                    -1   -4.26224  -3.43452   3.25385 
 H                    -1   -3.49843  -4.1237    3.65638 
 H                    -1   -5.10466  -3.42298   3.9695 
 H                    -1   -4.64507  -3.86684   2.31281 
 C                    -1   -3.43315  -0.91074   4.74198 
 H                    -1   -2.69954  -1.45502   5.36274 
 H                    -1   -3.08496   0.13525   4.66098 
 H                    -1   -4.3958   -0.90461   5.28453 
 C                    -1   -4.96088  -0.72041   2.13661 
 H                    -1   -4.79258   0.37003   2.16759 
 H                    -1   -5.07339  -1.01325   1.07773 
 H                    -1   -5.92489  -0.91798   2.64081 
 C                    -1    1.73643   4.34277   0.5858 
 C                    -1    0.5791    5.32239   0.41772 
 H                    -1    0.07122   5.19804  -0.55441 
 H                    -1   -0.18007   5.2067    1.2111 
 H                    -1    0.95129   6.36045   0.46569 
 C                    -1    2.74319   4.60207  -0.54038 
 H                    -1    3.10748   5.64522  -0.51346 
 H                    -1    3.62442   3.94097  -0.46863 
 H                    -1    2.27862   4.43088  -1.528 
 C                    -1    2.40654   4.62148   1.93402 
 H                    -1    3.28114   3.97076   2.10132 
 H                    -1    2.75558   5.66841   1.99305 
 H                    -1    1.7016    4.45107   2.76693 
 P                    -1    3.04096  -0.88935   0.77599 
 C                    -1    3.37173  -1.55318  -0.93487 
 C                    -1    2.68087  -1.27836  -2.12293 
 C                    -1    4.45964  -2.4507   -1.01833 
 C                    -1    3.07925  -1.8413   -3.34439 
 C                    -1    4.88683  -2.98617  -2.23558 
 C                    -1    4.18463  -2.67815  -3.40044 
 H                    -1    2.49991  -1.60103  -4.24288 
 H                    -1    5.74765  -3.65876  -2.27263 
 H                    -1    4.50105  -3.10916  -4.35523 
 C                    -1    4.66162  -0.00978   1.04212 
 C                    -1    5.28185  -0.16495   2.29963 
 C                    -1    5.37302   0.68759   0.04544 
 C                    -1    6.57392   0.32453   2.5425 
 C                    -1    6.67199   1.16643   0.27359 
 C                    -1    7.25449   0.97717   1.52098 
 H                    -1    7.04897   0.19831   3.51725 
 H                    -1    7.21655   1.69956  -0.50872 
 H                    -1    8.26418   1.35706   1.70603 
 O                    -1    4.57131  -0.81426   3.24176 
 O                    -1    4.74542   0.88376  -1.13303 
 O                    -1    5.07017  -2.74185   0.154 
 O                    -1    1.58535  -0.47074  -2.12096 
 C                    -1    5.14135  -1.06085   4.49616 
 H                    -1    5.38434  -0.12712   5.03586 
 H                    -1    4.39628  -1.61586   5.08284 
 H                    -1    6.05738  -1.67607   4.42331 
 C                    -1    5.49385   1.21606  -2.2695 
 H                    -1    5.91434   2.23734  -2.21647 
 H                    -1    6.32024   0.4999   -2.43849 
 H                    -1    4.81003   1.17383  -3.13036 
 C                    -1    6.42365  -3.09844   0.15541 
 H                    -1    6.76655  -3.06666   1.20057 
 H                    -1    6.59617  -4.1204   -0.23005 
 H                    -1    7.03081  -2.38764  -0.43764 
 C                    -1    1.72758   0.79914  -2.70633 
 H                    -1    1.9736    0.73961  -3.78512 
 H                    -1    0.76091   1.31754  -2.59943 
 H                    -1    2.50364   1.39201  -2.18808 
 C                    0    -1.25849  -4.52183   1.48713 
 H                    0    -0.46398  -3.99832   0.99765 
 H                    0    -1.47351  -4.04956   2.42288 
 H                    0    -0.96465  -5.53627   1.6588 
 

 GradGradGradGradGradGradGradGradGradGradGradGradGradGradGradGradGradGrad
 Berny optimization.
 Initialization pass.
                           ----------------------------
                           !    Initial Parameters    !
                           ! (Angstroms and Degrees)  !
 --------------------------                            --------------------------
 ! Name  Definition              Value          Derivative Info.                !
 --------------------------------------------------------------------------------
 ! X1    R(1,-1)                -1.7567         Frozen                          !
 ! Y1    R(1,-2)                -1.7068         Frozen                          !
 ! Z1    R(1,-3)                 0.3105         Frozen                          !
 ! X2    R(2,-1)                -2.1185         Frozen                          !
 ! Y2    R(2,-2)                 0.5683         Frozen                          !
 ! Z2    R(2,-3)                -0.1254         Frozen                          !
 ! X3    R(3,-1)                -2.1751         Frozen                          !
 ! Y3    R(3,-2)                 1.994          Frozen                          !
 ! Z3    R(3,-3)                 2.4243         Frozen                          !
 ! X4    R(4,-1)                -4.6831         Frozen                          !
 ! Y4    R(4,-2)                 1.3613         Frozen                          !
 ! Z4    R(4,-3)                -1.437          Frozen                          !
 ! X5    R(5,-1)                -2.372          Frozen                          !
 ! Y5    R(5,-2)                 2.8738         Frozen                          !
 ! Z5    R(5,-3)                -2.1804         Frozen                          !
 ! X6    R(6,-1)                -1.5071         Frozen                          !
 ! Y6    R(6,-2)                -1.7382         Frozen                          !
 ! Z6    R(6,-3)                -1.7629         Frozen                          !
 ! X7    R(7,-1)                 0.1849         Frozen                          !
 ! Y7    R(7,-2)                -1.1393         Frozen                          !
 ! Z7    R(7,-3)                 0.3793         Frozen                          !
 ! X8    R(8,-1)                -4.4779         Frozen                          !
 ! Y8    R(8,-2)                 2.1259         Frozen                          !
 ! Z8    R(8,-3)                -0.3458         Frozen                          !
 ! X9    R(9,-1)                 0.5003         Frozen                          !
 ! Y9    R(9,-2)                 0.1078         Frozen                          !
 ! Z9    R(9,-3)                 0.4115         Frozen                          !
 ! X10   R(10,-1)                1.8691         Frozen                          !
 ! Y10   R(10,-2)                0.5051         Frozen                          !
 ! Z10   R(10,-3)                0.5689         Frozen                          !
 ! X11   R(11,-1)               -3.3128         Frozen                          !
 ! Y11   R(11,-2)                1.8478         Frozen                          !
 ! Z11   R(11,-3)                0.3916         Frozen                          !
 ! X12   R(12,-1)               -1.9966         Frozen                          !
 ! Y12   R(12,-2)                0.5726         Frozen                          !
 ! Z12   R(12,-3)               -1.9742         Frozen                          !
 ! X13   R(13,-1)               -0.442          Frozen                          !
 ! Y13   R(13,-2)                1.1671         Frozen                          !
 ! Z13   R(13,-3)                0.2616         Frozen                          !
 ! X14   R(14,-1)               -0.7122         Frozen                          !
 ! Y14   R(14,-2)               -2.8268         Frozen                          !
 ! Z14   R(14,-3)               -2.2116         Frozen                          !
 ! X15   R(15,-1)               -1.2656         Frozen                          !
 ! Y15   R(15,-2)               -3.4477         Frozen                          !
 ! Z15   R(15,-3)               -2.9374         Frozen                          !
 ! X16   R(16,-1)               -0.4691         Frozen                          !
 ! Y16   R(16,-2)               -3.4325         Frozen                          !
 ! Z16   R(16,-3)               -1.329          Frozen                          !
 ! X17   R(17,-1)                0.2258         Frozen                          !
 ! Y17   R(17,-2)               -2.4609         Frozen                          !
 ! Z17   R(17,-3)               -2.6547         Frozen                          !
 ! X18   R(18,-1)               -5.5656         Frozen                          !
 ! Y18   R(18,-2)                1.8003         Frozen                          !
 ! Z18   R(18,-3)               -2.4322         Frozen                          !
 ! X19   R(19,-1)               -5.4176         Frozen                          !
 ! Y19   R(19,-2)                1.1482         Frozen                          !
 ! Z19   R(19,-3)               -3.3058         Frozen                          !
 ! X20   R(20,-1)               -5.3581         Frozen                          !
 ! Y20   R(20,-2)                2.8451         Frozen                          !
 ! Z20   R(20,-3)               -2.7294         Frozen                          !
 ! X21   R(21,-1)               -6.623          Frozen                          !
 ! Y21   R(21,-2)                1.7267         Frozen                          !
 ! Z21   R(21,-3)               -2.1183         Frozen                          !
 ! X22   R(22,-1)               -5.3663         Frozen                          !
 ! Y22   R(22,-2)                3.1274         Frozen                          !
 ! Z22   R(22,-3)                0.0602         Frozen                          !
 ! X23   R(23,-1)               -6.2529         Frozen                          !
 ! Y23   R(23,-2)                3.3609         Frozen                          !
 ! Z23   R(23,-3)               -0.5337         Frozen                          !
 ! X24   R(24,-1)                2.2111         Frozen                          !
 ! Y24   R(24,-2)                1.8464         Frozen                          !
 ! Z24   R(24,-3)                0.6418         Frozen                          !
 ! X25   R(25,-1)                3.2678         Frozen                          !
 ! Y25   R(25,-2)                2.1045         Frozen                          !
 ! Z25   R(25,-3)                0.777          Frozen                          !
 ! X26   R(26,-1)                1.2686         Frozen                          !
 ! Y26   R(26,-2)                2.889          Frozen                          !
 ! Z26   R(26,-3)                0.5289         Frozen                          !
 ! X27   R(27,-1)               -1.6749         Frozen                          !
 ! Y27   R(27,-2)                2.7698         Frozen                          !
 ! Z27   R(27,-3)                3.4793         Frozen                          !
 ! X28   R(28,-1)               -0.7669         Frozen                          !
 ! Y28   R(28,-2)                2.2659         Frozen                          !
 ! Z28   R(28,-3)                3.842          Frozen                          !
 ! X29   R(29,-1)               -2.3906         Frozen                          !
 ! Y29   R(29,-2)                2.8515         Frozen                          !
 ! Z29   R(29,-3)                4.3178         Frozen                          !
 ! X30   R(30,-1)               -1.4019         Frozen                          !
 ! Y30   R(30,-2)                3.7871         Frozen                          !
 ! Z30   R(30,-3)                3.141          Frozen                          !
 ! X31   R(31,-1)               -2.4421         Frozen                          !
 ! Y31   R(31,-2)                4.0632         Frozen                          !
 ! Z31   R(31,-3)               -2.9184         Frozen                          !
 ! X32   R(32,-1)               -1.4704         Frozen                          !
 ! Y32   R(32,-2)                4.3207         Frozen                          !
 ! Z32   R(32,-3)               -3.3788         Frozen                          !
 ! X33   R(33,-1)               -2.7208         Frozen                          !
 ! Y33   R(33,-2)                4.8586         Frozen                          !
 ! Z33   R(33,-3)               -2.2124         Frozen                          !
 ! X34   R(34,-1)               -3.208          Frozen                          !
 ! Y34   R(34,-2)                4.0176         Frozen                          !
 ! Z34   R(34,-3)               -3.7142         Frozen                          !
 ! X35   R(35,-1)               -2.0913         Frozen                          !
 ! Y35   R(35,-2)                1.7131         Frozen                          !
 ! Z35   R(35,-3)               -2.7991         Frozen                          !
 ! X36   R(36,-1)               -1.8911         Frozen                          !
 ! Y36   R(36,-2)                1.6211         Frozen                          !
 ! Z36   R(36,-3)               -4.1813         Frozen                          !
 ! X37   R(37,-1)               -1.9717         Frozen                          !
 ! Y37   R(37,-2)                2.5041         Frozen                          !
 ! Z37   R(37,-3)               -4.8186         Frozen                          !
 ! X38   R(38,-1)               -1.5652         Frozen                          !
 ! Y38   R(38,-2)                0.3884         Frozen                          !
 ! Z38   R(38,-3)               -4.7425         Frozen                          !
 ! X39   R(39,-1)               -1.4057         Frozen                          !
 ! Y39   R(39,-2)                0.3157         Frozen                          !
 ! Z39   R(39,-3)               -5.8225         Frozen                          !
 ! X40   R(40,-1)               -0.0562         Frozen                          !
 ! Y40   R(40,-2)                2.5106         Frozen                          !
 ! Z40   R(40,-3)                0.3172         Frozen                          !
 ! X41   R(41,-1)               -0.8332         Frozen                          !
 ! Y41   R(41,-2)                3.2717         Frozen                          !
 ! Z41   R(41,-3)                0.1871         Frozen                          !
 ! X42   R(42,-1)               -5.1271         Frozen                          !
 ! Y42   R(42,-2)                3.8062         Frozen                          !
 ! Z42   R(42,-3)                1.2533         Frozen                          !
 ! X43   R(43,-1)               -5.8194         Frozen                          !
 ! Y43   R(43,-2)                4.5908         Frozen                          !
 ! Z43   R(43,-3)                1.5732         Frozen                          !
 ! X44   R(44,-1)               -4.0444         Frozen                          !
 ! Y44   R(44,-2)                3.477          Frozen                          !
 ! Z44   R(44,-3)                2.0625         Frozen                          !
 ! X45   R(45,-1)               -3.8988         Frozen                          !
 ! Y45   R(45,-2)                3.9785         Frozen                          !
 ! Z45   R(45,-3)                3.022          Frozen                          !
 ! X46   R(46,-1)               -3.1696         Frozen                          !
 ! Y46   R(46,-2)                2.4649         Frozen                          !
 ! Z46   R(46,-3)                1.6488         Frozen                          !
 ! X47   R(47,-1)               -1.6398         Frozen                          !
 ! Y47   R(47,-2)               -0.641          Frozen                          !
 ! Z47   R(47,-3)               -2.5757         Frozen                          !
 ! X48   R(48,-1)               -1.4282         Frozen                          !
 ! Y48   R(48,-2)               -0.7469         Frozen                          !
 ! Z48   R(48,-3)               -3.9556         Frozen                          !
 ! X49   R(49,-1)               -1.1611         Frozen                          !
 ! Y49   R(49,-2)               -1.7024         Frozen                          !
 ! Z49   R(49,-3)               -4.4109         Frozen                          !
 ! X50   R(50,-1)               -2.5154         Frozen                          !
 ! Y50   R(50,-2)               -4.495          Frozen                          !
 ! Z50   R(50,-3)                0.5978         Frozen                          !
 ! X51   R(51,-1)               -3.2203         Frozen                          !
 ! Y51   R(51,-2)               -5.66           Frozen                          !
 ! Z51   R(51,-3)                0.3186         Frozen                          !
 ! X52   R(52,-1)               -4.3535         Frozen                          !
 ! Y52   R(52,-2)               -5.5812         Frozen                          !
 ! Z52   R(52,-3)               -0.4851         Frozen                          !
 ! X53   R(53,-1)               -4.7375         Frozen                          !
 ! Y53   R(53,-2)               -4.3381         Frozen                          !
 ! Z53   R(53,-3)               -0.9821         Frozen                          !
 ! X54   R(54,-1)               -3.9725         Frozen                          !
 ! Y54   R(54,-2)               -3.2242         Frozen                          !
 ! Z54   R(54,-3)               -0.6614         Frozen                          !
 ! X55   R(55,-1)               -2.8808         Frozen                          !
 ! Y55   R(55,-2)               -3.2997         Frozen                          !
 ! Z55   R(55,-3)                0.115          Frozen                          !
 ! X56   R(56,-1)               -4.9319         Frozen                          !
 ! Y56   R(56,-2)               -6.4784         Frozen                          !
 ! Z56   R(56,-3)               -0.7223         Frozen                          !
 ! X57   R(57,-1)               -2.8774         Frozen                          !
 ! Y57   R(57,-2)               -6.6122         Frozen                          !
 ! Z57   R(57,-3)                0.7294         Frozen                          !
 ! X58   R(58,-1)               -5.6209         Frozen                          !
 ! Y58   R(58,-2)               -4.2255         Frozen                          !
 ! Z58   R(58,-3)               -1.6146         Frozen                          !
 ! X59   R(59,-1)               -4.2326         Frozen                          !
 ! Y59   R(59,-2)               -2.2276         Frozen                          !
 ! Z59   R(59,-3)               -1.0391         Frozen                          !
 ! X60   R(60,-1)               -1.9118         Frozen                          !
 ! Y60   R(60,-2)               -1.6579         Frozen                          !
 ! Z60   R(60,-3)                2.21           Frozen                          !
 ! X61   R(61,-1)               -1.3169         Frozen                          !
 ! Y61   R(61,-2)               -2.5184         Frozen                          !
 ! Z61   R(61,-3)                2.5861         Frozen                          !
 ! X62   R(62,-1)               -1.368          Frozen                          !
 ! Y62   R(62,-2)               -0.7474         Frozen                          !
 ! Z62   R(62,-3)                2.53           Frozen                          !
 ! X63   R(63,-1)               -3.5968         Frozen                          !
 ! Y63   R(63,-2)               -1.6786         Frozen                          !
 ! Z63   R(63,-3)                3.0214         Frozen                          !
 ! X64   R(64,-1)               -4.2622         Frozen                          !
 ! Y64   R(64,-2)               -3.4345         Frozen                          !
 ! Z64   R(64,-3)                3.2538         Frozen                          !
 ! X65   R(65,-1)               -3.4984         Frozen                          !
 ! Y65   R(65,-2)               -4.1237         Frozen                          !
 ! Z65   R(65,-3)                3.6564         Frozen                          !
 ! X66   R(66,-1)               -5.1047         Frozen                          !
 ! Y66   R(66,-2)               -3.423          Frozen                          !
 ! Z66   R(66,-3)                3.9695         Frozen                          !
 ! X67   R(67,-1)               -4.6451         Frozen                          !
 ! Y67   R(67,-2)               -3.8668         Frozen                          !
 ! Z67   R(67,-3)                2.3128         Frozen                          !
 ! X68   R(68,-1)               -3.4332         Frozen                          !
 ! Y68   R(68,-2)               -0.9107         Frozen                          !
 ! Z68   R(68,-3)                4.742          Frozen                          !
 ! X69   R(69,-1)               -2.6995         Frozen                          !
 ! Y69   R(69,-2)               -1.455          Frozen                          !
 ! Z69   R(69,-3)                5.3627         Frozen                          !
 ! X70   R(70,-1)               -3.085          Frozen                          !
 ! Y70   R(70,-2)                0.1352         Frozen                          !
 ! Z70   R(70,-3)                4.661          Frozen                          !
 ! X71   R(71,-1)               -4.3958         Frozen                          !
 ! Y71   R(71,-2)               -0.9046         Frozen                          !
 ! Z71   R(71,-3)                5.2845         Frozen                          !
 ! X72   R(72,-1)               -4.9609         Frozen                          !
 ! Y72   R(72,-2)               -0.7204         Frozen                          !
 ! Z72   R(72,-3)                2.1366         Frozen                          !
 ! X73   R(73,-1)               -4.7926         Frozen                          !
 ! Y73   R(73,-2)                0.37           Frozen                          !
 ! Z73   R(73,-3)                2.1676         Frozen                          !
 ! X74   R(74,-1)               -5.0734         Frozen                          !
 ! Y74   R(74,-2)               -1.0132         Frozen                          !
 ! Z74   R(74,-3)                1.0777         Frozen                          !
 ! X75   R(75,-1)               -5.9249         Frozen                          !
 ! Y75   R(75,-2)               -0.918          Frozen                          !
 ! Z75   R(75,-3)                2.6408         Frozen                          !
 ! X76   R(76,-1)                1.7364         Frozen                          !
 ! Y76   R(76,-2)                4.3428         Frozen                          !
 ! Z76   R(76,-3)                0.5858         Frozen                          !
 ! X77   R(77,-1)                0.5791         Frozen                          !
 ! Y77   R(77,-2)                5.3224         Frozen                          !
 ! Z77   R(77,-3)                0.4177         Frozen                          !
 ! X78   R(78,-1)                0.0712         Frozen                          !
 ! Y78   R(78,-2)                5.198          Frozen                          !
 ! Z78   R(78,-3)               -0.5544         Frozen                          !
 ! X79   R(79,-1)               -0.1801         Frozen                          !
 ! Y79   R(79,-2)                5.2067         Frozen                          !
 ! Z79   R(79,-3)                1.2111         Frozen                          !
 ! X80   R(80,-1)                0.9513         Frozen                          !
 ! Y80   R(80,-2)                6.3605         Frozen                          !
 ! Z80   R(80,-3)                0.4657         Frozen                          !
 ! X81   R(81,-1)                2.7432         Frozen                          !
 ! Y81   R(81,-2)                4.6021         Frozen                          !
 ! Z81   R(81,-3)               -0.5404         Frozen                          !
 ! X82   R(82,-1)                3.1075         Frozen                          !
 ! Y82   R(82,-2)                5.6452         Frozen                          !
 ! Z82   R(82,-3)               -0.5135         Frozen                          !
 ! X83   R(83,-1)                3.6244         Frozen                          !
 ! Y83   R(83,-2)                3.941          Frozen                          !
 ! Z83   R(83,-3)               -0.4686         Frozen                          !
 ! X84   R(84,-1)                2.2786         Frozen                          !
 ! Y84   R(84,-2)                4.4309         Frozen                          !
 ! Z84   R(84,-3)               -1.528          Frozen                          !
 ! X85   R(85,-1)                2.4065         Frozen                          !
 ! Y85   R(85,-2)                4.6215         Frozen                          !
 ! Z85   R(85,-3)                1.934          Frozen                          !
 ! X86   R(86,-1)                3.2811         Frozen                          !
 ! Y86   R(86,-2)                3.9708         Frozen                          !
 ! Z86   R(86,-3)                2.1013         Frozen                          !
 ! X87   R(87,-1)                2.7556         Frozen                          !
 ! Y87   R(87,-2)                5.6684         Frozen                          !
 ! Z87   R(87,-3)                1.993          Frozen                          !
 ! X88   R(88,-1)                1.7016         Frozen                          !
 ! Y88   R(88,-2)                4.4511         Frozen                          !
 ! Z88   R(88,-3)                2.7669         Frozen                          !
 ! X89   R(89,-1)                3.041          Frozen                          !
 ! Y89   R(89,-2)               -0.8893         Frozen                          !
 ! Z89   R(89,-3)                0.776          Frozen                          !
 ! X90   R(90,-1)                3.3717         Frozen                          !
 ! Y90   R(90,-2)               -1.5532         Frozen                          !
 ! Z90   R(90,-3)               -0.9349         Frozen                          !
 ! X91   R(91,-1)                2.6809         Frozen                          !
 ! Y91   R(91,-2)               -1.2784         Frozen                          !
 ! Z91   R(91,-3)               -2.1229         Frozen                          !
 ! X92   R(92,-1)                4.4596         Frozen                          !
 ! Y92   R(92,-2)               -2.4507         Frozen                          !
 ! Z92   R(92,-3)               -1.0183         Frozen                          !
 ! X93   R(93,-1)                3.0793         Frozen                          !
 ! Y93   R(93,-2)               -1.8413         Frozen                          !
 ! Z93   R(93,-3)               -3.3444         Frozen                          !
 ! X94   R(94,-1)                4.8868         Frozen                          !
 ! Y94   R(94,-2)               -2.9862         Frozen                          !
 ! Z94   R(94,-3)               -2.2356         Frozen                          !
 ! X95   R(95,-1)                4.1846         Frozen                          !
 ! Y95   R(95,-2)               -2.6782         Frozen                          !
 ! Z95   R(95,-3)               -3.4004         Frozen                          !
 ! X96   R(96,-1)                2.4999         Frozen                          !
 ! Y96   R(96,-2)               -1.601          Frozen                          !
 ! Z96   R(96,-3)               -4.2429         Frozen                          !
 ! X97   R(97,-1)                5.7476         Frozen                          !
 ! Y97   R(97,-2)               -3.6588         Frozen                          !
 ! Z97   R(97,-3)               -2.2726         Frozen                          !
 ! X98   R(98,-1)                4.501          Frozen                          !
 ! Y98   R(98,-2)               -3.1092         Frozen                          !
 ! Z98   R(98,-3)               -4.3552         Frozen                          !
 ! X99   R(99,-1)                4.6616         Frozen                          !
 ! Y99   R(99,-2)               -0.0098         Frozen                          !
 ! Z99   R(99,-3)                1.0421         Frozen                          !
 ! X100  R(100,-1)               5.2819         Frozen                          !
 ! Y100  R(100,-2)              -0.1649         Frozen                          !
 ! Z100  R(100,-3)               2.2996         Frozen                          !
 ! X101  R(101,-1)               5.373          Frozen                          !
 ! Y101  R(101,-2)               0.6876         Frozen                          !
 ! Z101  R(101,-3)               0.0454         Frozen                          !
 ! X102  R(102,-1)               6.5739         Frozen                          !
 ! Y102  R(102,-2)               0.3245         Frozen                          !
 ! Z102  R(102,-3)               2.5425         Frozen                          !
 ! X103  R(103,-1)               6.672          Frozen                          !
 ! Y103  R(103,-2)               1.1664         Frozen                          !
 ! Z103  R(103,-3)               0.2736         Frozen                          !
 ! X104  R(104,-1)               7.2545         Frozen                          !
 ! Y104  R(104,-2)               0.9772         Frozen                          !
 ! Z104  R(104,-3)               1.521          Frozen                          !
 ! X105  R(105,-1)               7.049          Frozen                          !
 ! Y105  R(105,-2)               0.1983         Frozen                          !
 ! Z105  R(105,-3)               3.5172         Frozen                          !
 ! X106  R(106,-1)               7.2165         Frozen                          !
 ! Y106  R(106,-2)               1.6996         Frozen                          !
 ! Z106  R(106,-3)              -0.5087         Frozen                          !
 ! X107  R(107,-1)               8.2642         Frozen                          !
 ! Y107  R(107,-2)               1.3571         Frozen                          !
 ! Z107  R(107,-3)               1.706          Frozen                          !
 ! X108  R(108,-1)               4.5713         Frozen                          !
 ! Y108  R(108,-2)              -0.8143         Frozen                          !
 ! Z108  R(108,-3)               3.2418         Frozen                          !
 ! X109  R(109,-1)               4.7454         Frozen                          !
 ! Y109  R(109,-2)               0.8838         Frozen                          !
 ! Z109  R(109,-3)              -1.133          Frozen                          !
 ! X110  R(110,-1)               5.0702         Frozen                          !
 ! Y110  R(110,-2)              -2.7419         Frozen                          !
 ! Z110  R(110,-3)               0.154          Frozen                          !
 ! X111  R(111,-1)               1.5854         Frozen                          !
 ! Y111  R(111,-2)              -0.4707         Frozen                          !
 ! Z111  R(111,-3)              -2.121          Frozen                          !
 ! X112  R(112,-1)               5.1414         Frozen                          !
 ! Y112  R(112,-2)              -1.0608         Frozen                          !
 ! Z112  R(112,-3)               4.4962         Frozen                          !
 ! X113  R(113,-1)               5.3843         Frozen                          !
 ! Y113  R(113,-2)              -0.1271         Frozen                          !
 ! Z113  R(113,-3)               5.0359         Frozen                          !
 ! X114  R(114,-1)               4.3963         Frozen                          !
 ! Y114  R(114,-2)              -1.6159         Frozen                          !
 ! Z114  R(114,-3)               5.0828         Frozen                          !
 ! X115  R(115,-1)               6.0574         Frozen                          !
 ! Y115  R(115,-2)              -1.6761         Frozen                          !
 ! Z115  R(115,-3)               4.4233         Frozen                          !
 ! X116  R(116,-1)               5.4938         Frozen                          !
 ! Y116  R(116,-2)               1.2161         Frozen                          !
 ! Z116  R(116,-3)              -2.2695         Frozen                          !
 ! X117  R(117,-1)               5.9143         Frozen                          !
 ! Y117  R(117,-2)               2.2373         Frozen                          !
 ! Z117  R(117,-3)              -2.2165         Frozen                          !
 ! X118  R(118,-1)               6.3202         Frozen                          !
 ! Y118  R(118,-2)               0.4999         Frozen                          !
 ! Z118  R(118,-3)              -2.4385         Frozen                          !
 ! X119  R(119,-1)               4.81           Frozen                          !
 ! Y119  R(119,-2)               1.1738         Frozen                          !
 ! Z119  R(119,-3)              -3.1304         Frozen                          !
 ! X120  R(120,-1)               6.4237         Frozen                          !
 ! Y120  R(120,-2)              -3.0984         Frozen                          !
 ! Z120  R(120,-3)               0.1554         Frozen                          !
 ! X121  R(121,-1)               6.7665         Frozen                          !
 ! Y121  R(121,-2)              -3.0667         Frozen                          !
 ! Z121  R(121,-3)               1.2006         Frozen                          !
 ! X122  R(122,-1)               6.5962         Frozen                          !
 ! Y122  R(122,-2)              -4.1204         Frozen                          !
 ! Z122  R(122,-3)              -0.23           Frozen                          !
 ! X123  R(123,-1)               7.0308         Frozen                          !
 ! Y123  R(123,-2)              -2.3876         Frozen                          !
 ! Z123  R(123,-3)              -0.4376         Frozen                          !
 ! X124  R(124,-1)               1.7276         Frozen                          !
 ! Y124  R(124,-2)               0.7991         Frozen                          !
 ! Z124  R(124,-3)              -2.7063         Frozen                          !
 ! X125  R(125,-1)               1.9736         Frozen                          !
 ! Y125  R(125,-2)               0.7396         Frozen                          !
 ! Z125  R(125,-3)              -3.7851         Frozen                          !
 ! X126  R(126,-1)               0.7609         Frozen                          !
 ! Y126  R(126,-2)               1.3175         Frozen                          !
 ! Z126  R(126,-3)              -2.5994         Frozen                          !
 ! X127  R(127,-1)               2.5036         Frozen                          !
 ! Y127  R(127,-2)               1.392          Frozen                          !
 ! Z127  R(127,-3)              -2.1881         Frozen                          !
 ! R1    R(50,128)               1.54           estimate D2E/DX2                !
 ! R2    R(128,129)              1.07           estimate D2E/DX2                !
 ! R3    R(128,130)              1.07           estimate D2E/DX2                !
 ! R4    R(128,131)              1.07           estimate D2E/DX2                !
 ! A1    A(51,50,128)          121.0148         estimate D2E/DX2                !
 ! A2    A(55,50,128)          116.5012         estimate D2E/DX2                !
 ! A3    A(50,128,129)         109.4712         estimate D2E/DX2                !
 ! A4    A(50,128,130)         109.4712         estimate D2E/DX2                !
 ! A5    A(50,128,131)         109.4712         estimate D2E/DX2                !
 ! A6    A(129,128,130)        109.4713         estimate D2E/DX2                !
 ! A7    A(129,128,131)        109.4712         estimate D2E/DX2                !
 ! A8    A(130,128,131)        109.4712         estimate D2E/DX2                !
 ! D1    D(128,50,51,52)       179.6897         estimate D2E/DX2                !
 ! D2    D(128,50,51,57)        -0.3708         estimate D2E/DX2                !
 ! D3    D(128,50,55,1)          8.2581         estimate D2E/DX2                !
 ! D4    D(128,50,55,54)      -179.7713         estimate D2E/DX2                !
 ! D5    D(51,50,128,129)      130.334          estimate D2E/DX2                !
 ! D6    D(51,50,128,130)     -109.666          estimate D2E/DX2                !
 ! D7    D(51,50,128,131)       10.334          estimate D2E/DX2                !
 ! D8    D(55,50,128,129)      -49.5397         estimate D2E/DX2                !
 ! D9    D(55,50,128,130)       70.4603         estimate D2E/DX2                !
 ! D10   D(55,50,128,131)     -169.5397         estimate D2E/DX2                !
 --------------------------------------------------------------------------------
 Trust Radius=3.00D-01 FncErr=1.00D-07 GrdErr=1.00D-06 EigMax=2.50D+02 EigMin=1.00D-04
 Number of steps in this run=    413 maximum allowed number of steps=    786.
 GradGradGradGradGradGradGradGradGradGradGradGradGradGradGradGradGradGrad

 Stoichiometry    C52H65NNiO9P2Si
 Framework group  C1[X(C52H65NNiO9P2Si)]
 Deg. of freedom   387
 Full point group                 C1      NOp   1
 Largest Abelian subgroup         C1      NOp   1
 Largest concise Abelian subgroup C1      NOp   1
                         Standard orientation:                         
 ---------------------------------------------------------------------
 Center     Atomic      Atomic             Coordinates (Angstroms)
 Number     Number       Type             X           Y           Z
 ---------------------------------------------------------------------
      1         28           0        1.759877   -1.630126   -0.196899
      2         15           0        2.093737    0.668406    0.122537
      3          8           0        2.142402    1.961913   -2.496822
      4          8           0        4.644478    1.557873    1.398863
      5          8           0        2.313384    3.079145    2.057090
      6          8           0        1.503600   -1.557989    1.874675
      7          8           0       -0.187918   -1.089882   -0.300231
      8          6           0        4.434112    2.262939    0.269290
      9          6           0       -0.517765    0.150133   -0.397344
     10          6           0       -1.890486    0.522680   -0.578700
     11          6           0        3.274783    1.933673   -0.456126
     12          6           0        1.965521    0.766160    1.968316
     13          6           0        0.411687    1.226785   -0.299387
     14          6           0        0.719907   -2.631474    2.376412
     15          1           0        1.278025   -3.207719    3.134764
     16          1           0        0.486837   -3.284520    1.525474
     17          1           0       -0.223806   -2.254333    2.797580
     18          6           0        5.518425    2.057767    2.372648
     19          1           0        5.375034    1.449646    3.278135
     20          1           0        5.297739    3.113924    2.615231
     21          1           0        6.577634    1.980595    2.065954
     22          6           0        5.312126    3.252678   -0.185209
     23          1           0        6.194013    3.526847    0.398439
     24          6           0       -2.247773    1.854357   -0.721411
     25          1           0       -3.306989    2.092700   -0.872594
     26          6           0       -1.317857    2.912382   -0.659537
     27          6           0        1.636795    2.676647   -3.591677
     28          1           0        0.735936    2.144111   -3.930526
     29          1           0        2.354368    2.723571   -4.431271
     30          1           0        1.350834    3.706620   -3.306908
     31          6           0        2.367144    4.305649    2.733283
     32          1           0        1.391009    4.575007    3.177111
     33          1           0        2.639044    5.067022    1.988058
     34          1           0        3.130801    4.310023    3.532459
     35          6           0        2.044170    1.948530    2.733813
     36          6           0        1.840327    1.925249    4.118388
     37          1           0        1.908475    2.840733    4.709683
     38          6           0        1.526875    0.719281    4.741262
     39          1           0        1.364522    0.700182    5.823136
     40          6           0        0.010467    2.561014   -0.425033
     41          1           0        0.778127    3.336862   -0.331946
     42          6           0        5.069101    3.866513   -1.412181
     43          1           0        5.753347    4.641775   -1.770059
     44          6           0        3.993097    3.483440   -2.206472
     45          1           0        3.844979    3.933297   -3.190907
     46          6           0        3.128727    2.483675   -1.743826
     47          6           0        1.620730   -0.419022    2.630399
     48          6           0        1.405734   -0.456488    4.013305
     49          1           0        1.148227   -1.390390    4.516384
     50          6           0        2.551922   -4.420266   -0.338464
     51          6           0        3.269295   -5.561004    0.002133
     52          6           0        4.398741   -5.427773    0.803946
     53          6           0        4.766654   -4.156333    1.237430
     54          6           0        3.989778   -3.069417    0.857822
     55          7           0        2.901766   -3.197538    0.083265
     56          1           0        4.986785   -6.304711    1.088460
     57          1           0        2.938931   -6.537099   -0.360171
     58          1           0        5.646492   -4.000986    1.865854
     59          1           0        4.237027   -2.051803    1.184530
     60          6           0        1.920783   -1.676993   -2.095934
     61          1           0        1.337259   -2.562610   -2.429083
     62          1           0        1.367616   -0.790610   -2.463818
     63         14           0        3.608744   -1.719478   -2.900519
     64          6           0        4.295296   -3.477051   -3.040605
     65          1           0        3.540914   -4.194941   -3.409341
     66          1           0        5.139949   -3.492343   -3.753541
     67          1           0        4.679922   -3.855956   -2.077534
     68          6           0        3.441997   -1.042933   -4.658725
     69          1           0        2.716867   -1.626964   -5.252759
     70          1           0        3.081396    0.001656   -4.632541
     71          1           0        4.406343   -1.053318   -5.198185
     72          6           0        4.958542   -0.701130   -2.062315
     73          1           0        4.777687    0.384217   -2.149732
     74          1           0        5.070851   -0.937883   -0.989473
     75          1           0        5.926489   -0.912948   -2.552999
     76          6           0       -1.802381    4.355726   -0.792372
     77          6           0       -0.657094    5.356253   -0.671599
     78          1           0       -0.151106    5.287959    0.307055
     79          1           0        0.106057    5.208942   -1.455860
     80          1           0       -1.041162    6.386027   -0.773864
     81          6           0       -2.815914    4.660616    0.316177
     82          1           0       -3.192202    5.696645    0.234688
     83          1           0       -3.689152    3.986370    0.276018
     84          1           0       -2.352740    4.545838    1.312584
     85          6           0       -2.471101    4.556956   -2.154996
     86          1           0       -3.337512    3.888241   -2.291094
     87          1           0       -2.832080    5.595291   -2.268701
     88          1           0       -1.761404    4.352328   -2.976080
     89         15           0       -3.045367   -0.894256   -0.717191
     90          6           0       -3.374216   -1.473248    1.024571
     91          6           0       -2.690640   -1.129683    2.198877
     92          6           0       -4.451894   -2.378054    1.150979
     93          6           0       -3.086600   -1.633837    3.446521
     94          6           0       -4.876972   -2.855329    2.392933
     95          6           0       -4.182359   -2.479669    3.542396
     96          1           0       -2.513145   -1.340953    4.333103
     97          1           0       -5.730036   -3.535221    2.462070
     98          1           0       -4.496989   -2.864793    4.517173
     99          6           0       -4.675225   -0.048659   -1.032690
    100          6           0       -5.289340   -0.275472   -2.282293
    101          6           0       -5.398063    0.690514   -0.075144
    102          6           0       -6.586172    0.185639   -2.553599
    103          6           0       -6.701733    1.141684   -0.331219
    104          6           0       -7.277753    0.881791   -1.568865
    105          1           0       -7.056409    0.003958   -3.521905
    106          1           0       -7.255101    1.707815    0.421145
    107          1           0       -8.291154    1.239759   -1.776005
    108          8           0       -4.568097   -0.963871   -3.187842
    109          8           0       -4.776798    0.954300    1.093447
    110          8           0       -5.055020   -2.736168   -0.006545
    111          8           0       -1.604580   -0.310374    2.158489
    112          6           0       -5.130972   -1.281227   -4.429507
    113          1           0       -5.382962   -0.379361   -5.017132
    114          1           0       -4.377512   -1.856803   -4.984815
    115          1           0       -6.040025   -1.902644   -4.327709
    116          6           0       -5.532892    1.335658    2.209249
    117          1           0       -5.965040    2.347850    2.102653
    118          1           0       -6.351478    0.619435    2.412492
    119          1           0       -4.851563    1.345731    3.073052
    120          6           0       -6.404250   -3.108284    0.006576
    121          1           0       -6.743936   -3.134229   -1.039794
    122          1           0       -6.566192   -4.111070    0.443539
    123          1           0       -7.021639   -2.375180    0.560628
    124          6           0       -1.763537    0.986114    2.677451
    125          1           0       -2.012516    0.979142    3.757187
    126          1           0       -0.802607    1.509695    2.546763
    127          1           0       -2.544676    1.542416    2.127266
    128          6           0        1.298398   -4.507553   -1.228778
    129          1           0        0.496200   -3.969007   -0.769053
    130          1           0        1.511089   -4.081441   -2.186949
    131          1           0        1.016950   -5.532859   -1.348927
 ---------------------------------------------------------------------
 Rotational constants (GHZ):           0.0471945           0.0294672           0.0263511
 Standard basis: def2SVP (5D, 7F)
 There are  1348 symmetry adapted cartesian basis functions of A   symmetry.
 There are  1278 symmetry adapted basis functions of A   symmetry.
  1278 basis functions,  2197 primitive gaussians,  1348 cartesian basis functions
   264 alpha electrons      264 beta electrons
       nuclear repulsion energy     13938.9240794623 Hartrees.
 NAtoms=  131 NActive=  131 NUniq=  131 SFac= 1.00D+00 NAtFMM=   60 NAOKFM=T Big=T
 Integral buffers will be    131072 words long.
 Raffenetti 2 integral format.
 Two-electron integral symmetry is turned on.
 ------------------------------------------------------------------------------
 Polarizable Continuum Model (PCM)
 =================================
 Model                : PCM.
 Atomic radii         : SMD-Coulomb.
 Polarization charges : Total charges.
 Charge compensation  : None.
 Solution method      : On-the-fly selection.
 Cavity type          : VdW (van der Waals Surface) (Alpha=1.000).
 Cavity algorithm     : GePol (No added spheres)
                        Default sphere list used, NSphG=  131.
                        Lebedev-Laikov grids with approx.  5.0 points / Ang**2.
                        Smoothing algorithm: York/Karplus (Gamma=1.0000).
                        Polarization charges: spherical gaussians, with
                                              point-specific exponents (IZeta= 3).
                        Self-potential: point-specific (ISelfS= 7).
                        Self-field    : sphere-specific E.n sum rule (ISelfD= 2).
 1st derivatives      : Analytical E(r).r(x)/FMM algorithm (CHGder, D1EAlg=3).
                        Cavity 1st derivative terms included.
 Solvent              : ChloroBenzene, Eps=   5.696800 Eps(inf)=   2.322881
 ------------------------------------------------------------------------------
 ------------------------------------------------------------------------------
 Atomic radii for non-electrostatic terms: SMD-CDS.
 ------------------------------------------------------------------------------
 Nuclear repulsion after PCM non-electrostatic terms =    13938.9085055097 Hartrees.
 One-electron integrals computed using PRISM.
   1 Symmetry operations used in ECPInt.
 ECPInt:  NShTT=  181503 NPrTT=  665238 LenC2=  136716 LenP2D=  304217.
 LDataN:  DoStor=T MaxTD1= 6 Len=  172
 Number of processors reduced to  50 by ecpmxn.
 NBasis=  1278 RedAO= T EigKep=  1.72D-04  NBF=  1278
 NBsUse=  1278 1.00D-06 EigRej= -1.00D+00 NBFU=  1278
 ExpMin= 3.81D-02 ExpMax= 7.11D+04 ExpMxC= 1.07D+04 IAcc=3 IRadAn=         5 AccDes= 0.00D+00
 Harris functional with IExCor= 1009 and IRadAn=       5 diagonalized for initial guess.
 HarFok:  IExCor= 1009 AccDes= 0.00D+00 IRadAn=         5 IDoV= 1 UseB2=F ITyADJ=14
 ICtDFT=  3500011 ScaDFX=  1.000000  1.000000  1.000000  1.000000
 FoFCou: FMM=F IPFlag=           0 FMFlag=      100000 FMFlg1=        2001
         NFxFlg=           0 DoJE=T BraDBF=F KetDBF=T FulRan=T
         wScrn=  0.000000 ICntrl=       500 IOpCl=  0 I1Cent=   200000004 NGrid=           0
         NMat0=    1 NMatS0=      1 NMatT0=    0 NMatD0=    1 NMtDS0=    0 NMtDT0=    0
 Petite list used in FoFCou.
 Requested convergence on RMS density matrix=1.00D-08 within 128 cycles.
 Requested convergence on MAX density matrix=1.00D-06.
 Requested convergence on             energy=1.00D-06.
 No special actions if energy rises.
 Inv3:  Mode=1 IEnd=   196830000.
 Iteration    1 A*A^-1 deviation from unit magnitude is 1.57D-14 for   1011.
 Iteration    1 A*A^-1 deviation from orthogonality  is 1.18D-14 for   5521   1010.
 Iteration    1 A^-1*A deviation from unit magnitude is 1.55D-14 for   3923.
 Iteration    1 A^-1*A deviation from orthogonality  is 9.57D-13 for   3406   3356.
 EnCoef did     2 forward-backward iterations
 Restarting incremental Fock formation.
 Error on total polarization charges =  0.06888
 SCF Done:  E(RM06) =  -5228.49847660     A.U. after   21 cycles
            NFock= 21  Conv=0.28D-08     -V/T= 2.0068
 SMD-CDS (non-electrostatic) energy       (kcal/mol) =      -9.77
 (included in total energy above)
 Hyperfine terms turned off by default for NAtoms > 100.

 **********************************************************************

            Population analysis using the SCF Density.

 **********************************************************************

 Orbital symmetries:
       Occupied  (A) (A) (A) (A) (A) (A) (A) (A) (A) (A) (A) (A)
                 (A) (A) (A) (A) (A) (A) (A) (A) (A) (A) (A) (A)
                 (A) (A) (A) (A) (A) (A) (A) (A) (A) (A) (A) (A)
                 (A) (A) (A) (A) (A) (A) (A) (A) (A) (A) (A) (A)
                 (A) (A) (A) (A) (A) (A) (A) (A) (A) (A) (A) (A)
                 (A) (A) (A) (A) (A) (A) (A) (A) (A) (A) (A) (A)
                 (A) (A) (A) (A) (A) (A) (A) (A) (A) (A) (A) (A)
                 (A) (A) (A) (A) (A) (A) (A) (A) (A) (A) (A) (A)
                 (A) (A) (A) (A) (A) (A) (A) (A) (A) (A) (A) (A)
                 (A) (A) (A) (A) (A) (A) (A) (A) (A) (A) (A) (A)
                 (A) (A) (A) (A) (A) (A) (A) (A) (A) (A) (A) (A)
                 (A) (A) (A) (A) (A) (A) (A) (A) (A) (A) (A) (A)
                 (A) (A) (A) (A) (A) (A) (A) (A) (A) (A) (A) (A)
                 (A) (A) (A) (A) (A) (A) (A) (A) (A) (A) (A) (A)
                 (A) (A) (A) (A) (A) (A) (A) (A) (A) (A) (A) (A)
                 (A) (A) (A) (A) (A) (A) (A) (A) (A) (A) (A) (A)
                 (A) (A) (A) (A) (A) (A) (A) (A) (A) (A) (A) (A)
                 (A) (A) (A) (A) (A) (A) (A) (A) (A) (A) (A) (A)
                 (A) (A) (A) (A) (A) (A) (A) (A) (A) (A) (A) (A)
                 (A) (A) (A) (A) (A) (A) (A) (A) (A) (A) (A) (A)
                 (A) (A) (A) (A) (A) (A) (A) (A) (A) (A) (A) (A)
                 (A) (A) (A) (A) (A) (A) (A) (A) (A) (A) (A) (A)
       Virtual   (A) (A) (A) (A) (A) (A) (A) (A) (A) (A) (A) (A)
                 (A) (A) (A) (A) (A) (A) (A) (A) (A) (A) (A) (A)
                 (A) (A) (A) (A) (A) (A) (A) (A) (A) (A) (A) (A)
                 (A) (A) (A) (A) (A) (A) (A) (A) (A) (A) (A) (A)
                 (A) (A) (A) (A) (A) (A) (A) (A) (A) (A) (A) (A)
                 (A) (A) (A) (A) (A) (A) (A) (A) (A) (A) (A) (A)
                 (A) (A) (A) (A) (A) (A) (A) (A) (A) (A) (A) (A)
                 (A) (A) (A) (A) (A) (A) (A) (A) (A) (A) (A) (A)
                 (A) (A) (A) (A) (A) (A) (A) (A) (A) (A) (A) (A)
                 (A) (A) (A) (A) (A) (A) (A) (A) (A) (A) (A) (A)
                 (A) (A) (A) (A) (A) (A) (A) (A) (A) (A) (A) (A)
                 (A) (A) (A) (A) (A) (A) (A) (A) (A) (A) (A) (A)
                 (A) (A) (A) (A) (A) (A) (A) (A) (A) (A) (A) (A)
                 (A) (A) (A) (A) (A) (A) (A) (A) (A) (A) (A) (A)
                 (A) (A) (A) (A) (A) (A) (A) (A) (A) (A) (A) (A)
                 (A) (A) (A) (A) (A) (A) (A) (A) (A) (A) (A) (A)
                 (A) (A) (A) (A) (A) (A) (A) (A) (A) (A) (A) (A)
                 (A) (A) (A) (A) (A) (A) (A) (A) (A) (A) (A) (A)
                 (A) (A) (A) (A) (A) (A) (A) (A) (A) (A) (A) (A)
                 (A) (A) (A) (A) (A) (A) (A) (A) (A) (A) (A) (A)
                 (A) (A) (A) (A) (A) (A) (A) (A) (A) (A) (A) (A)
                 (A) (A) (A) (A) (A) (A) (A) (A) (A) (A) (A) (A)
                 (A) (A) (A) (A) (A) (A) (A) (A) (A) (A) (A) (A)
                 (A) (A) (A) (A) (A) (A) (A) (A) (A) (A) (A) (A)
                 (A) (A) (A) (A) (A) (A) (A) (A) (A) (A) (A) (A)
                 (A) (A) (A) (A) (A) (A) (A) (A) (A) (A) (A) (A)
                 (A) (A) (A) (A) (A) (A) (A) (A) (A) (A) (A) (A)
                 (A) (A) (A) (A) (A) (A) (A) (A) (A) (A) (A) (A)
                 (A) (A) (A) (A) (A) (A) (A) (A) (A) (A) (A) (A)
                 (A) (A) (A) (A) (A) (A) (A) (A) (A) (A) (A) (A)
                 (A) (A) (A) (A) (A) (A) (A) (A) (A) (A) (A) (A)
                 (A) (A) (A) (A) (A) (A) (A) (A) (A) (A) (A) (A)
                 (A) (A) (A) (A) (A) (A) (A) (A) (A) (A) (A) (A)
                 (A) (A) (A) (A) (A) (A) (A) (A) (A) (A) (A) (A)
                 (A) (A) (A) (A) (A) (A) (A) (A) (A) (A) (A) (A)
                 (A) (A) (A) (A) (A) (A) (A) (A) (A) (A) (A) (A)
                 (A) (A) (A) (A) (A) (A) (A) (A) (A) (A) (A) (A)
                 (A) (A) (A) (A) (A) (A) (A) (A) (A) (A) (A) (A)
                 (A) (A) (A) (A) (A) (A) (A) (A) (A) (A) (A) (A)
                 (A) (A) (A) (A) (A) (A) (A) (A) (A) (A) (A) (A)
                 (A) (A) (A) (A) (A) (A) (A) (A) (A) (A) (A) (A)
                 (A) (A) (A) (A) (A) (A) (A) (A) (A) (A) (A) (A)
                 (A) (A) (A) (A) (A) (A) (A) (A) (A) (A) (A) (A)
                 (A) (A) (A) (A) (A) (A) (A) (A) (A) (A) (A) (A)
                 (A) (A) (A) (A) (A) (A) (A) (A) (A) (A) (A) (A)
                 (A) (A) (A) (A) (A) (A) (A) (A) (A) (A) (A) (A)
                 (A) (A) (A) (A) (A) (A) (A) (A) (A) (A) (A) (A)
                 (A) (A) (A) (A) (A) (A) (A) (A) (A) (A) (A) (A)
                 (A) (A) (A) (A) (A) (A) (A) (A) (A) (A) (A) (A)
                 (A) (A) (A) (A) (A) (A) (A) (A) (A) (A) (A) (A)
                 (A) (A) (A) (A) (A) (A) (A) (A) (A) (A) (A) (A)
                 (A) (A) (A) (A) (A) (A) (A) (A) (A) (A) (A) (A)
                 (A) (A) (A) (A) (A) (A) (A) (A) (A) (A) (A) (A)
                 (A) (A) (A) (A) (A) (A) (A) (A) (A) (A) (A) (A)
                 (A) (A) (A) (A) (A) (A) (A) (A) (A) (A) (A) (A)
                 (A) (A) (A) (A) (A) (A) (A) (A) (A) (A) (A) (A)
                 (A) (A) (A) (A) (A) (A) (A) (A) (A) (A) (A) (A)
                 (A) (A) (A) (A) (A) (A) (A) (A) (A) (A) (A) (A)
                 (A) (A) (A) (A) (A) (A) (A) (A) (A) (A) (A) (A)
                 (A) (A) (A) (A) (A) (A) (A) (A) (A) (A) (A) (A)
                 (A) (A) (A) (A) (A) (A) (A) (A) (A) (A) (A) (A)
                 (A) (A) (A) (A) (A) (A) (A) (A) (A) (A) (A) (A)
                 (A) (A) (A) (A) (A) (A) (A) (A) (A) (A) (A) (A)
                 (A) (A) (A) (A) (A) (A) (A) (A) (A) (A) (A) (A)
                 (A) (A) (A) (A) (A) (A) (A) (A) (A) (A) (A) (A)
                 (A) (A) (A) (A) (A) (A) (A) (A) (A) (A) (A) (A)
                 (A) (A) (A) (A) (A) (A) (A) (A) (A) (A) (A) (A)
                 (A) (A) (A) (A) (A) (A) (A) (A) (A) (A) (A) (A)
                 (A) (A) (A) (A) (A) (A) (A) (A) (A) (A) (A) (A)
                 (A) (A) (A) (A) (A) (A) (A) (A) (A) (A) (A) (A)
                 (A) (A) (A) (A) (A) (A) (A) (A) (A) (A) (A) (A)
                 (A) (A) (A) (A) (A) (A) (A) (A) (A) (A) (A) (A)
                 (A) (A) (A) (A) (A) (A) (A) (A) (A) (A) (A) (A)
                 (A) (A) (A) (A) (A) (A) (A) (A) (A) (A) (A) (A)
                 (A) (A) (A) (A) (A) (A) (A) (A) (A) (A) (A) (A)
                 (A) (A) (A) (A) (A) (A) (A) (A) (A) (A) (A) (A)
                 (A) (A) (A) (A) (A) (A) (A) (A) (A) (A) (A) (A)
                 (A) (A) (A) (A) (A) (A) (A) (A) (A) (A) (A) (A)
                 (A) (A) (A) (A) (A) (A) (A) (A) (A) (A) (A) (A)
                 (A) (A) (A) (A) (A) (A) (A) (A) (A) (A) (A) (A)
                 (A) (A) (A) (A) (A) (A) (A) (A) (A) (A) (A) (A)
                 (A) (A) (A) (A) (A) (A) (A) (A) (A) (A) (A) (A)
                 (A) (A) (A) (A) (A) (A) (A) (A) (A) (A) (A) (A)
                 (A) (A) (A) (A) (A) (A) (A) (A) (A) (A) (A) (A)
                 (A) (A) (A) (A) (A) (A)
 The electronic state is 1-A.
 Alpha  occ. eigenvalues -- -300.07686 -77.21565 -77.19168 -66.21310 -35.97233
 Alpha  occ. eigenvalues --  -31.33639 -31.31511 -31.29696 -19.26648 -19.24436
 Alpha  occ. eigenvalues --  -19.24110 -19.23708 -19.23668 -19.23603 -19.23302
 Alpha  occ. eigenvalues --  -19.21344 -19.14387 -14.42969 -10.31939 -10.31676
 Alpha  occ. eigenvalues --  -10.31125 -10.31067 -10.30911 -10.30906 -10.30574
 Alpha  occ. eigenvalues --  -10.30411 -10.29851 -10.29763 -10.29626 -10.29617
 Alpha  occ. eigenvalues --  -10.29576 -10.29223 -10.29118 -10.29020 -10.28994
 Alpha  occ. eigenvalues --  -10.27777 -10.27655 -10.27172 -10.26457 -10.26324
 Alpha  occ. eigenvalues --  -10.25588 -10.25093 -10.25075 -10.24748 -10.24721
 Alpha  occ. eigenvalues --  -10.24438 -10.24411 -10.24348 -10.24216 -10.23888
 Alpha  occ. eigenvalues --  -10.23850 -10.23847 -10.23712 -10.23647 -10.23607
 Alpha  occ. eigenvalues --  -10.23582 -10.23420 -10.23082 -10.22478 -10.22442
 Alpha  occ. eigenvalues --  -10.22420 -10.22304 -10.22256 -10.21562 -10.21156
 Alpha  occ. eigenvalues --  -10.21058 -10.20549 -10.20231 -10.20225 -10.18203
 Alpha  occ. eigenvalues --   -6.66065  -6.63778  -5.33127  -4.78302  -4.78204
 Alpha  occ. eigenvalues --   -4.77788  -4.76016  -4.75943  -4.75402  -4.03483
 Alpha  occ. eigenvalues --   -3.65314  -3.65299  -3.65216  -2.61384  -2.59136
 Alpha  occ. eigenvalues --   -2.56616  -1.09688  -1.09059  -1.08402  -1.08204
 Alpha  occ. eigenvalues --   -1.08187  -1.08040  -1.07794  -1.05861  -0.97785
 Alpha  occ. eigenvalues --   -0.97424  -0.86028  -0.85425  -0.85084  -0.84749
 Alpha  occ. eigenvalues --   -0.83455  -0.82064  -0.79448  -0.79416  -0.77934
 Alpha  occ. eigenvalues --   -0.76926  -0.76357  -0.76111  -0.75624  -0.75480
 Alpha  occ. eigenvalues --   -0.75240  -0.74519  -0.72866  -0.70948  -0.70825
 Alpha  occ. eigenvalues --   -0.70165  -0.70007  -0.69973  -0.69716  -0.69008
 Alpha  occ. eigenvalues --   -0.68841  -0.68456  -0.68285  -0.67546  -0.67318
 Alpha  occ. eigenvalues --   -0.67080  -0.65743  -0.65506  -0.64937  -0.64808
 Alpha  occ. eigenvalues --   -0.63660  -0.63022  -0.61815  -0.61612  -0.60706
 Alpha  occ. eigenvalues --   -0.59748  -0.58947  -0.58419  -0.58152  -0.58002
 Alpha  occ. eigenvalues --   -0.57894  -0.57271  -0.55550  -0.55055  -0.54344
 Alpha  occ. eigenvalues --   -0.53686  -0.53533  -0.52665  -0.52499  -0.51713
 Alpha  occ. eigenvalues --   -0.51321  -0.51183  -0.50828  -0.50307  -0.50103
 Alpha  occ. eigenvalues --   -0.49580  -0.49439  -0.49285  -0.48971  -0.48492
 Alpha  occ. eigenvalues --   -0.48431  -0.48225  -0.48000  -0.47837  -0.47458
 Alpha  occ. eigenvalues --   -0.47396  -0.47175  -0.46977  -0.46836  -0.46691
 Alpha  occ. eigenvalues --   -0.46431  -0.46358  -0.46259  -0.45665  -0.45571
 Alpha  occ. eigenvalues --   -0.44948  -0.44484  -0.44264  -0.44221  -0.43846
 Alpha  occ. eigenvalues --   -0.43420  -0.43333  -0.42836  -0.42027  -0.41882
 Alpha  occ. eigenvalues --   -0.41696  -0.41476  -0.41456  -0.41296  -0.40900
 Alpha  occ. eigenvalues --   -0.40715  -0.40578  -0.40420  -0.40104  -0.39984
 Alpha  occ. eigenvalues --   -0.39837  -0.39583  -0.39159  -0.39015  -0.38882
 Alpha  occ. eigenvalues --   -0.38827  -0.38535  -0.38374  -0.38147  -0.38038
 Alpha  occ. eigenvalues --   -0.37844  -0.37738  -0.37632  -0.37539  -0.37451
 Alpha  occ. eigenvalues --   -0.37407  -0.37272  -0.37223  -0.37044  -0.36653
 Alpha  occ. eigenvalues --   -0.36510  -0.36237  -0.35773  -0.35560  -0.35466
 Alpha  occ. eigenvalues --   -0.35331  -0.35047  -0.34967  -0.34488  -0.34053
 Alpha  occ. eigenvalues --   -0.33693  -0.33623  -0.33473  -0.33348  -0.33132
 Alpha  occ. eigenvalues --   -0.32923  -0.32838  -0.32532  -0.32123  -0.31999
 Alpha  occ. eigenvalues --   -0.31658  -0.31553  -0.31301  -0.31213  -0.30471
 Alpha  occ. eigenvalues --   -0.30315  -0.29656  -0.29334  -0.28387  -0.28264
 Alpha  occ. eigenvalues --   -0.27880  -0.27481  -0.26829  -0.25437  -0.25085
 Alpha  occ. eigenvalues --   -0.24682  -0.23916  -0.23765  -0.23640  -0.23500
 Alpha  occ. eigenvalues --   -0.23121  -0.22982  -0.22762  -0.22712  -0.22220
 Alpha  occ. eigenvalues --   -0.20194  -0.19901  -0.17280  -0.16108
 Alpha virt. eigenvalues --   -0.04140  -0.02026  -0.01644  -0.01326  -0.01026
 Alpha virt. eigenvalues --   -0.00127   0.00638   0.01224   0.01322   0.01500
 Alpha virt. eigenvalues --    0.02184   0.02476   0.04551   0.05045   0.05600
 Alpha virt. eigenvalues --    0.06317   0.06345   0.06780   0.07212   0.07386
 Alpha virt. eigenvalues --    0.07515   0.07856   0.07965   0.08178   0.08354
 Alpha virt. eigenvalues --    0.08842   0.08973   0.09230   0.09587   0.09926
 Alpha virt. eigenvalues --    0.10229   0.10596   0.10808   0.10953   0.11133
 Alpha virt. eigenvalues --    0.11227   0.11344   0.11482   0.11629   0.11692
 Alpha virt. eigenvalues --    0.11908   0.11963   0.12214   0.12248   0.12410
 Alpha virt. eigenvalues --    0.12529   0.12750   0.12985   0.13223   0.13297
 Alpha virt. eigenvalues --    0.13415   0.13544   0.13624   0.13792   0.13874
 Alpha virt. eigenvalues --    0.14100   0.14166   0.14473   0.14673   0.14890
 Alpha virt. eigenvalues --    0.15099   0.15200   0.15354   0.15506   0.15898
 Alpha virt. eigenvalues --    0.15913   0.16057   0.16156   0.16288   0.16393
 Alpha virt. eigenvalues --    0.16653   0.16665   0.16833   0.16883   0.16962
 Alpha virt. eigenvalues --    0.17140   0.17381   0.17481   0.17602   0.17722
 Alpha virt. eigenvalues --    0.17933   0.18006   0.18210   0.18266   0.18565
 Alpha virt. eigenvalues --    0.18649   0.18781   0.18958   0.19054   0.19371
 Alpha virt. eigenvalues --    0.19612   0.20083   0.20121   0.20414   0.20596
 Alpha virt. eigenvalues --    0.20878   0.21496   0.21923   0.22577   0.22655
 Alpha virt. eigenvalues --    0.23260   0.23385   0.23696   0.23909   0.24134
 Alpha virt. eigenvalues --    0.24598   0.24732   0.25664   0.26205   0.26317
 Alpha virt. eigenvalues --    0.26597   0.26889   0.27035   0.27350   0.27638
 Alpha virt. eigenvalues --    0.27916   0.28169   0.28307   0.28749   0.29076
 Alpha virt. eigenvalues --    0.29222   0.29451   0.29501   0.29859   0.30241
 Alpha virt. eigenvalues --    0.30422   0.30871   0.31109   0.31896   0.31950
 Alpha virt. eigenvalues --    0.32254   0.32753   0.32864   0.32929   0.33215
 Alpha virt. eigenvalues --    0.33591   0.34095   0.34288   0.34468   0.35066
 Alpha virt. eigenvalues --    0.35375   0.35612   0.35852   0.36167   0.36359
 Alpha virt. eigenvalues --    0.36506   0.37081   0.37432   0.37772   0.38454
 Alpha virt. eigenvalues --    0.38712   0.38980   0.39491   0.39791   0.40180
 Alpha virt. eigenvalues --    0.40393   0.40603   0.40886   0.41003   0.41570
 Alpha virt. eigenvalues --    0.41661   0.41941   0.42222   0.42550   0.42839
 Alpha virt. eigenvalues --    0.42968   0.43082   0.43177   0.43402   0.43808
 Alpha virt. eigenvalues --    0.43981   0.44254   0.44505   0.44657   0.44702
 Alpha virt. eigenvalues --    0.44831   0.45071   0.45206   0.45299   0.45607
 Alpha virt. eigenvalues --    0.45715   0.45857   0.46066   0.46097   0.46458
 Alpha virt. eigenvalues --    0.46633   0.46761   0.47007   0.47272   0.47501
 Alpha virt. eigenvalues --    0.47697   0.47745   0.47980   0.48296   0.48770
 Alpha virt. eigenvalues --    0.49054   0.49258   0.49431   0.49612   0.49773
 Alpha virt. eigenvalues --    0.50156   0.50396   0.50860   0.51132   0.51335
 Alpha virt. eigenvalues --    0.51365   0.51711   0.51879   0.52344   0.52706
 Alpha virt. eigenvalues --    0.52737   0.52924   0.53184   0.53406   0.53740
 Alpha virt. eigenvalues --    0.53953   0.54120   0.54261   0.54618   0.54811
 Alpha virt. eigenvalues --    0.55062   0.55383   0.55547   0.55717   0.56059
 Alpha virt. eigenvalues --    0.56193   0.56500   0.56845   0.56939   0.57187
 Alpha virt. eigenvalues --    0.57614   0.57873   0.57982   0.58258   0.58340
 Alpha virt. eigenvalues --    0.58491   0.58697   0.58992   0.59172   0.59333
 Alpha virt. eigenvalues --    0.59498   0.59505   0.59815   0.59886   0.59998
 Alpha virt. eigenvalues --    0.60086   0.60204   0.60383   0.60554   0.60751
 Alpha virt. eigenvalues --    0.60959   0.61241   0.61319   0.61442   0.61562
 Alpha virt. eigenvalues --    0.61655   0.61736   0.61841   0.62049   0.62131
 Alpha virt. eigenvalues --    0.62282   0.62572   0.62781   0.62879   0.63011
 Alpha virt. eigenvalues --    0.63107   0.63181   0.63378   0.63592   0.63664
 Alpha virt. eigenvalues --    0.63802   0.63908   0.64149   0.64319   0.64462
 Alpha virt. eigenvalues --    0.64525   0.64635   0.64794   0.64822   0.65004
 Alpha virt. eigenvalues --    0.65125   0.65265   0.65351   0.65630   0.65752
 Alpha virt. eigenvalues --    0.65867   0.66005   0.66145   0.66323   0.66531
 Alpha virt. eigenvalues --    0.66573   0.66816   0.66963   0.67170   0.67295
 Alpha virt. eigenvalues --    0.67408   0.67471   0.67858   0.67909   0.68080
 Alpha virt. eigenvalues --    0.68229   0.68458   0.68630   0.68678   0.68901
 Alpha virt. eigenvalues --    0.69082   0.69156   0.69404   0.69614   0.69630
 Alpha virt. eigenvalues --    0.69841   0.70008   0.70106   0.70520   0.70611
 Alpha virt. eigenvalues --    0.70969   0.71134   0.71334   0.71562   0.71746
 Alpha virt. eigenvalues --    0.71790   0.72046   0.72214   0.72314   0.72561
 Alpha virt. eigenvalues --    0.72866   0.73128   0.73424   0.73581   0.73692
 Alpha virt. eigenvalues --    0.73963   0.74342   0.74439   0.74716   0.75206
 Alpha virt. eigenvalues --    0.75320   0.75511   0.75715   0.75882   0.76103
 Alpha virt. eigenvalues --    0.76292   0.76498   0.76791   0.77209   0.77225
 Alpha virt. eigenvalues --    0.77301   0.77637   0.77998   0.78352   0.78450
 Alpha virt. eigenvalues --    0.78498   0.78765   0.79331   0.79617   0.79664
 Alpha virt. eigenvalues --    0.79931   0.80390   0.80505   0.80656   0.80977
 Alpha virt. eigenvalues --    0.81121   0.81558   0.81777   0.82107   0.82242
 Alpha virt. eigenvalues --    0.82549   0.83092   0.83399   0.83952   0.83974
 Alpha virt. eigenvalues --    0.84612   0.84840   0.85355   0.85600   0.85772
 Alpha virt. eigenvalues --    0.86825   0.87049   0.87309   0.87542   0.87740
 Alpha virt. eigenvalues --    0.88240   0.88857   0.89247   0.89724   0.89904
 Alpha virt. eigenvalues --    0.90105   0.90365   0.90748   0.91136   0.91284
 Alpha virt. eigenvalues --    0.91678   0.92339   0.93051   0.93524   0.93878
 Alpha virt. eigenvalues --    0.93940   0.94196   0.94557   0.94882   0.95070
 Alpha virt. eigenvalues --    0.95352   0.96107   0.96237   0.96877   0.97159
 Alpha virt. eigenvalues --    0.97233   0.97787   0.98186   0.98345   0.99134
 Alpha virt. eigenvalues --    0.99321   1.00167   1.00325   1.00877   1.01165
 Alpha virt. eigenvalues --    1.01433   1.01577   1.02433   1.02491   1.03138
 Alpha virt. eigenvalues --    1.04194   1.04355   1.04541   1.05028   1.05707
 Alpha virt. eigenvalues --    1.06109   1.06297   1.06968   1.07438   1.07697
 Alpha virt. eigenvalues --    1.08043   1.08467   1.08816   1.09054   1.09301
 Alpha virt. eigenvalues --    1.09525   1.10115   1.10440   1.10700   1.11105
 Alpha virt. eigenvalues --    1.11738   1.11774   1.12836   1.13138   1.13355
 Alpha virt. eigenvalues --    1.14274   1.14492   1.14932   1.15488   1.16090
 Alpha virt. eigenvalues --    1.16259   1.16819   1.17056   1.17257   1.17790
 Alpha virt. eigenvalues --    1.18336   1.18585   1.19133   1.19419   1.19801
 Alpha virt. eigenvalues --    1.20075   1.20248   1.20756   1.21270   1.21305
 Alpha virt. eigenvalues --    1.21687   1.22027   1.22270   1.22525   1.22721
 Alpha virt. eigenvalues --    1.23201   1.23587   1.23817   1.24057   1.24427
 Alpha virt. eigenvalues --    1.25120   1.25285   1.26070   1.26177   1.26663
 Alpha virt. eigenvalues --    1.26871   1.27229   1.27349   1.27623   1.27977
 Alpha virt. eigenvalues --    1.28054   1.28377   1.28870   1.29054   1.29231
 Alpha virt. eigenvalues --    1.29486   1.30049   1.30342   1.31294   1.31396
 Alpha virt. eigenvalues --    1.31676   1.32078   1.32677   1.33137   1.33668
 Alpha virt. eigenvalues --    1.33964   1.34584   1.35276   1.35995   1.36828
 Alpha virt. eigenvalues --    1.37235   1.37863   1.38048   1.38616   1.39049
 Alpha virt. eigenvalues --    1.39495   1.40104   1.40709   1.41484   1.41817
[...]
 0.,0.,0.,0.,0.,0.,0.,0.,0.,0.,0.,0.,0.,0.,0.,0.,0.,0.,0.,0.,0.,0.,0.,0
 .,0.,0.,0.,0.,0.,0.,0.,0.,0.,0.,0.,0.,0.,0.,0.,0.,0.,0.,0.,0.,0.,0.,0.
 ,0.,0.,0.,0.,0.,0.,0.,0.,0.,0.,0.,0.,0.,0.,0.,0.,0.,0.,0.,0.,0.,0.,0.,
 0.,0.,0.,0.,0.,0.,0.,0.,0.,0.,0.,0.,0.,0.,0.,0.,0.,0.,0.,0.,0.,0.,0.,0
 .,0.,0.,0.,0.,0.,0.,0.,0.,0.,0.,0.,0.,0.,0.,0.,0.,0.,0.,0.,0.,0.,0.,0.
 ,0.,0.,0.,0.,0.,0.,0.,0.,0.,0.,0.,0.,0.,0.,0.,0.,0.,0.,0.,0.,0.,0.,0.,
 0.,0.,0.,0.,0.,0.,0.,0.,0.,0.,0.,0.,0.,0.,0.,0.,0.,0.,0.,0.,0.,0.,0.,0
 .,0.,0.,0.,0.,0.,0.,0.,0.,0.,0.,0.,0.,0.,0.,0.,0.,0.,0.,0.,0.,0.,0.,0.
 ,0.,0.,0.,0.,0.,0.,0.,0.,0.,0.,0.,0.,0.,0.,0.,0.,0.,0.,0.,0.,0.,0.,0.,
 0.,0.,0.,0.,0.,0.,0.,0.,0.,0.,0.,0.,0.,0.,0.,0.,0.,0.,0.,0.,0.,0.,0.,0
 .,0.,0.,0.,0.,0.,0.,0.,0.,0.,0.,0.,0.,0.,0.,0.,0.,0.,0.,0.,0.,0.,0.,0.
 ,0.,0.,0.,0.,0.,0.,0.,0.,0.,0.,0.,0.,0.,0.,0.,0.,0.,0.,0.,0.,0.,0.,0.,
 0.,0.,0.,0.,0.,0.,0.,0.,0.,0.,0.,0.,0.,0.,0.,0.,0.,0.,0.,0.,0.,0.,0.,0
 .,0.,0.,0.,0.,0.,0.,0.,0.,0.,0.,0.,0.,0.,0.,0.,0.,0.,0.,0.,0.,0.,0.,0.
 ,0.,0.,0.,0.,0.,0.,0.,0.,0.,0.,0.,0.,0.,0.,0.,0.,0.,0.,0.,0.,0.,0.,0.,
 0.,0.,0.,0.,0.,0.,0.,0.,0.,0.,0.,0.,0.,0.,0.,0.,0.,0.,0.,0.,0.,0.,0.,0
 .,0.,0.,0.,0.,0.,0.,0.,0.,0.,0.,0.,0.,0.,0.,0.,0.,0.,0.,0.,0.,0.,0.,0.
 ,0.,0.,0.,0.,0.,0.,0.,0.,0.,0.,0.,0.,0.,0.,0.,0.,0.,0.,0.,0.,0.,0.,0.,
 0.,0.,0.,0.,0.,0.,0.,0.,0.,0.,0.,0.,0.,0.,0.,0.,0.,0.,0.,0.,0.,0.,0.,0
 .,0.,0.,0.,0.,0.,0.,0.,0.,0.,0.,0.,0.,0.,0.,0.,0.,0.,0.,0.,0.,0.,0.,0.
 ,0.,0.,0.,0.,0.,0.,0.,0.,0.,0.,0.,0.,0.,0.,0.,0.,0.,0.,0.,0.,0.,0.,0.,
 0.,0.,0.,0.,0.,0.,0.,0.,0.,0.,0.,0.,0.,0.,0.,0.,0.,0.,0.,0.,0.,0.,0.,0
 .,0.,0.,0.,0.,0.,0.,0.,0.,0.,0.,0.,0.,0.,0.,0.,0.,0.,0.,0.,0.,0.,0.,0.
 ,0.,0.,0.,0.,0.,0.,0.,0.,0.,0.,0.,0.,0.,0.,0.,0.,0.,0.,0.,0.,0.,0.,0.,
 0.,0.,0.,0.,0.,0.,0.,0.,0.,0.,0.,0.,0.,0.,0.,0.,0.,0.,0.,0.,0.,0.,0.,0
 .,0.,0.,0.,0.,0.,0.,0.,0.,0.,0.,0.,0.,0.,0.,0.,0.,0.,0.,0.,0.,0.,0.,0.
 ,0.,0.,0.,0.,0.,0.,0.,0.,0.,0.,0.,0.,0.,0.,0.,0.,0.,0.,0.,0.,0.,0.,0.,
 0.,0.,0.,0.,0.,0.,0.,0.,0.,0.,0.,0.,0.,0.,0.,0.,0.,0.,0.,0.,0.,0.,0.,0
 .,0.,0.,0.,0.,0.,0.,0.,0.,0.,0.,0.,0.,0.,0.,0.,0.,0.,0.,0.,0.,0.,0.,0.
 ,0.,0.,0.,0.,0.,0.,0.,0.,0.,0.,0.,0.,0.,0.,0.,0.,0.,0.,0.,0.,0.,0.,0.,
 0.,0.,0.,0.,0.,0.,0.,0.,0.,0.,0.,0.,0.,0.,0.,0.,0.,0.,0.,0.,0.,0.,0.,0
 .,0.,0.,0.,0.,0.,0.,0.,0.,0.,0.,0.,0.,0.,0.,0.,0.,0.,0.,0.,0.,0.,0.,0.
 ,0.,0.,0.,0.,0.,0.,0.,0.,0.,0.,0.,0.,0.,0.,0.,0.,0.,0.,0.,0.,0.,0.,0.,
 0.,0.,0.,0.,0.,0.,0.,0.,0.,0.,0.,0.,0.,0.,0.,0.,0.,0.,0.,0.,0.,0.,0.,0
 .,0.,0.,0.,0.,0.,0.,0.,0.,0.,0.,0.,0.,0.,0.,0.,0.,0.,0.,0.,0.,0.,0.,0.
 ,0.,0.,0.,0.,0.,0.,0.,0.,0.,0.,0.,0.,0.,0.,0.,0.,0.,0.,0.,0.,0.,0.,0.,
 0.,0.,0.,0.,0.,0.,0.,0.,0.,0.,0.,0.,0.,0.,0.,0.,0.,0.,0.,0.,0.,0.,0.,0
 .,0.,0.,0.,0.,0.,0.,0.,0.,0.,0.,0.,0.,0.,0.,0.,0.,0.,0.,0.,0.,0.,0.,0.
 ,0.,0.,0.,0.,0.,0.,0.,0.,0.,0.,0.,0.,0.,0.,0.,0.,0.,0.,0.,0.,0.,0.,0.,
 0.,0.,0.,0.,0.,0.,0.,0.,0.,0.,0.,0.,0.,0.,0.,0.,0.,0.,0.,0.,0.,0.,0.,0
 .,0.,0.,0.,0.,0.,0.,0.,0.,0.,0.,0.,0.,0.,0.,0.,0.,0.,0.,0.,0.,0.,0.,0.
 ,0.,0.,0.,0.,0.,0.,0.,0.,0.,0.,0.,0.,0.,0.,0.,0.,0.,0.,0.,0.,0.,0.,0.,
 0.,0.,0.,0.,0.,0.,0.,0.,0.,0.,0.,0.,0.,0.,0.,0.,0.,0.,0.,0.,0.,0.,0.,0
 .,0.,0.,0.,0.,0.,0.,0.,0.,0.,0.,0.,0.,0.,0.,0.,0.,0.,0.,0.,0.,0.,0.,0.
 ,0.,0.,0.,0.,0.,0.,0.,0.,0.,0.,0.,0.,0.,0.,0.,0.,0.,0.,0.,0.,0.,0.,0.,
 0.,0.,0.,0.,0.,0.,0.,0.,0.,0.,0.,0.,0.,0.,0.,0.,0.,0.,0.,0.,0.,0.,0.,0
 .,0.,0.,0.,0.,0.,0.,0.,0.,0.,0.,0.,0.,0.,0.,0.,0.,0.,0.,0.,0.,0.,0.,0.
 ,0.,0.,0.,0.,0.,0.,0.,0.,0.,0.,0.,0.,0.,0.,0.,0.,0.,0.,0.,0.,0.,0.,0.,
 0.,0.,0.,0.,0.,0.,0.,0.,0.,0.,0.,0.,0.,0.,0.,0.,0.,0.,0.,0.,0.,0.,0.,0
 .,0.,0.,0.,0.,0.,0.,0.,0.,0.,0.,0.,0.,0.,0.,0.,0.,0.,0.,0.,0.,0.,0.,0.
 ,0.,0.,0.,0.,0.,0.,0.,0.,0.,0.,0.,0.,0.,0.,0.,0.,0.,0.,0.,0.,0.,0.,0.,
 0.,0.,0.,0.,0.,0.,0.,0.,0.,0.,0.,0.,0.,0.,0.,0.,0.,0.,0.,0.,0.,0.,0.,0
 .,0.,0.,0.,0.,0.,0.,0.,0.,0.,0.,0.,0.,0.,0.,0.,0.,0.,0.,0.,0.,0.,0.,0.
 ,0.,0.,0.,0.,0.,0.,0.,0.,0.,0.,0.,0.,0.,0.,0.,0.,0.,0.,0.,0.,0.,0.,0.,
 0.,0.,0.,0.,0.,0.,0.,0.,0.,0.,0.,0.,0.,0.,0.,0.,0.,0.,0.,0.,0.,0.,0.,0
 .,0.,0.,0.,0.,0.,0.,0.,0.,0.,0.,0.,0.,0.,0.,0.,0.,0.,0.,0.,0.,0.,0.,0.
 ,0.,0.,0.,0.,0.,0.,0.,0.,0.,0.,0.,0.,0.,0.,0.,0.,0.,0.,0.,0.,0.,0.,0.,
 0.,0.,0.,0.,0.,0.,0.,0.,0.,0.,0.,0.,0.,0.,0.,0.,0.,0.,0.,0.,0.,0.,0.,0
 .,0.,0.,0.,0.,0.,0.,0.,0.,0.,0.,0.,0.,0.,0.,0.,0.,0.,0.,0.,0.,0.,0.,0.
 ,0.,0.,0.,0.,0.,0.,0.,0.,0.,0.,0.,0.,0.,0.,0.,0.,0.,0.,0.,0.,0.,0.,0.,
 0.,0.,0.,0.,0.,0.,0.,0.,0.,0.,0.,0.,0.,0.,0.,0.,0.,0.,0.,0.,0.,0.,0.,0
 .,0.,0.,0.,0.,0.,0.,0.,0.,0.,0.,0.,0.,0.,0.,0.,0.,0.,0.,0.,0.,0.,0.,0.
 ,0.,0.52593500,0.,0.,0.,0.,0.,0.,0.,0.,0.,0.,0.,0.,0.,0.,0.,0.,0.,0.,0
 .,0.,0.,0.,0.,0.,0.,0.,0.,0.,0.,0.,0.,0.,0.,0.,0.,0.,0.,0.,0.,0.,0.,0.
 ,0.,0.,0.,0.,0.,0.,0.,0.,0.,0.,0.,0.,0.,0.,0.,0.,0.,0.,0.,0.,0.,0.,0.,
 0.,0.,0.,0.,0.,0.,0.,0.,0.,0.,0.,0.,0.,0.,0.,0.,0.,0.,0.,0.,0.,0.,0.,0
 .,0.,0.,0.,0.,0.,0.,0.,0.,0.,0.,0.,0.,0.,0.,0.,0.,0.,0.,0.,0.,0.,0.,0.
 ,0.,0.,0.,0.,0.,0.,0.,0.,0.,0.,0.,0.,0.,0.,0.,0.,0.,0.,0.,0.,0.,0.,0.,
 0.,0.,0.,0.,0.,0.,0.,0.,0.,0.,0.,0.,0.,0.,0.,0.,0.,0.,0.,0.,0.,0.,0.,0
 .,0.,0.,0.,0.,0.,0.,0.,0.,0.,0.,0.,0.,0.,0.,0.,0.,0.,0.,0.,0.,0.,0.,0.
 ,0.,0.,0.,0.,0.,0.,0.,0.,0.,0.,0.,0.,0.,0.,0.,0.,0.,0.,0.,0.,0.,0.,0.,
 0.,0.,0.,0.,0.,0.,0.,0.,0.,0.,0.,0.,0.,0.,0.,0.,0.,0.,0.,0.,0.,0.,0.,0
 .,0.,0.,0.,0.,0.,0.,0.,0.,0.,0.,0.,0.,0.,0.,0.,0.,0.,0.,0.,0.,0.,0.,0.
 ,0.,0.,0.,0.,0.,0.,0.,0.,0.,0.,0.,0.,0.,0.,0.,0.,0.,0.,0.,0.,0.,0.,0.,
 0.,0.,0.,0.,0.,0.,0.,0.,0.,0.,0.,0.,0.,0.,0.,0.,0.,0.,0.,0.,0.,0.,0.,0
 .,0.,0.,0.,0.,0.,0.,0.,0.,0.,0.,0.,0.,0.,0.,0.,0.,0.,0.,0.,0.,0.,0.,0.
 ,0.,0.,0.,0.,0.,0.,0.,0.,0.,0.,0.,0.,0.,0.,0.,0.,0.,0.,0.,0.,0.,0.,0.,
 0.,0.,0.,0.,0.,0.,0.,0.,0.,0.,0.,0.,0.,0.,0.,0.,0.,0.,0.,0.,0.,0.,0.,0
 .,0.,0.,0.,0.,0.,0.,0.,0.,0.,0.,0.,0.,0.01830283,0.59561229,0.,0.,0.,0
 .,0.,0.,0.,0.,0.,0.,0.,0.,0.,0.,0.,0.,0.,0.,0.,0.,0.,0.,0.,0.,0.,0.,0.
 ,0.,0.,0.,0.,0.,0.,0.,0.,0.,0.,0.,0.,0.,0.,0.,0.,0.,0.,0.,0.,0.,0.,0.,
 0.,0.,0.,0.,0.,0.,0.,0.,0.,0.,0.,0.,0.,0.,0.,0.,0.,0.,0.,0.,0.,0.,0.,0
 .,0.,0.,0.,0.,0.,0.,0.,0.,0.,0.,0.,0.,0.,0.,0.,0.,0.,0.,0.,0.,0.,0.,0.
 ,0.,0.,0.,0.,0.,0.,0.,0.,0.,0.,0.,0.,0.,0.,0.,0.,0.,0.,0.,0.,0.,0.,0.,
 0.,0.,0.,0.,0.,0.,0.,0.,0.,0.,0.,0.,0.,0.,0.,0.,0.,0.,0.,0.,0.,0.,0.,0
 .,0.,0.,0.,0.,0.,0.,0.,0.,0.,0.,0.,0.,0.,0.,0.,0.,0.,0.,0.,0.,0.,0.,0.
 ,0.,0.,0.,0.,0.,0.,0.,0.,0.,0.,0.,0.,0.,0.,0.,0.,0.,0.,0.,0.,0.,0.,0.,
 0.,0.,0.,0.,0.,0.,0.,0.,0.,0.,0.,0.,0.,0.,0.,0.,0.,0.,0.,0.,0.,0.,0.,0
 .,0.,0.,0.,0.,0.,0.,0.,0.,0.,0.,0.,0.,0.,0.,0.,0.,0.,0.,0.,0.,0.,0.,0.
 ,0.,0.,0.,0.,0.,0.,0.,0.,0.,0.,0.,0.,0.,0.,0.,0.,0.,0.,0.,0.,0.,0.,0.,
 0.,0.,0.,0.,0.,0.,0.,0.,0.,0.,0.,0.,0.,0.,0.,0.,0.,0.,0.,0.,0.,0.,0.,0
 .,0.,0.,0.,0.,0.,0.,0.,0.,0.,0.,0.,0.,0.,0.,0.,0.,0.,0.,0.,0.,0.,0.,0.
 ,0.,0.,0.,0.,0.,0.,0.,0.,0.,0.,0.,0.,0.,0.,0.,0.,0.,0.,0.,0.,0.,0.,0.,
 0.,0.,0.,0.,0.,0.,0.,0.,0.,0.,0.,0.,0.,0.,0.,0.,0.,0.,0.,0.,0.,0.,0.,0
 .,0.,0.,0.,0.,0.,0.,0.,0.,0.,0.,0.,0.,0.,0.,0.,0.,0.,0.,0.,0.,0.,0.,0.
 ,0.,0.,0.,0.,-0.01345437,0.00136044,0.52774183,0.,0.,0.,0.,0.,0.,0.,0.
 ,0.,0.,0.,0.,0.,0.,0.,0.,0.,0.,0.,0.,0.,0.,0.,0.,0.,0.,0.,0.,0.,0.,0.,
 0.,0.,0.,0.,0.,0.,0.,0.,0.,0.,0.,0.,0.,0.,0.,0.,0.,0.,0.,0.,0.,0.,0.,0
 .,0.,0.,0.,0.,0.,0.,0.,0.,0.,0.,0.,0.,0.,0.,0.,0.,0.,0.,0.,0.,0.,0.,0.
 ,0.,0.,0.,0.,0.,0.,0.,0.,0.,0.,0.,0.,0.,0.,0.,0.,0.,0.,0.,0.,0.,0.,0.,
 0.,0.,0.,0.,0.,0.,0.,0.,0.,0.,0.,0.,0.,0.,0.,0.,0.,0.,0.,0.,0.,0.,0.,0
 .,0.,0.,0.,0.,0.,0.,0.,0.,0.,0.,0.,0.,0.,0.,0.,0.,0.,0.,0.,0.,0.,0.,0.
 ,0.,0.,0.,0.,0.,0.,0.,0.,0.,0.,0.,0.,0.,0.,0.,0.,0.,0.,0.,0.,0.,0.,0.,
 0.,0.,0.,0.,0.,0.,0.,0.,0.,0.,0.,0.,0.,0.,0.,0.,0.,0.,0.,0.,0.,0.,0.,0
 .,0.,0.,0.,0.,0.,0.,0.,0.,0.,0.,0.,0.,0.,0.,0.,0.,0.,0.,0.,0.,0.,0.,0.
 ,0.,0.,0.,0.,0.,0.,0.,0.,0.,0.,0.,0.,0.,0.,0.,0.,0.,0.,0.,0.,0.,0.,0.,
 0.,0.,0.,0.,0.,0.,0.,0.,0.,0.,0.,0.,0.,0.,0.,0.,0.,0.,0.,0.,0.,0.,0.,0
 .,0.,0.,0.,0.,0.,0.,0.,0.,0.,0.,0.,0.,0.,0.,0.,0.,0.,0.,0.,0.,0.,0.,0.
 ,0.,0.,0.,0.,0.,0.,0.,0.,0.,0.,0.,0.,0.,0.,0.,0.,0.,0.,0.,0.,0.,0.,0.,
 0.,0.,0.,0.,0.,0.,0.,0.,0.,0.,0.,0.,0.,0.,0.,0.,0.,0.,0.,0.,0.,0.,0.,0
 .,0.,0.,0.,0.,0.,0.,0.,0.,0.,0.,0.,0.,0.,0.,0.,0.,0.,0.,0.,0.,0.,0.,0.
 ,0.,0.,0.,0.,0.,0.,0.,0.,0.,0.,0.,0.,0.,0.,0.,0.,0.,0.,0.,0.,0.,0.,0.,
 -0.15867210,-0.13011744,0.03865263,0.16735625,0.,0.,0.,0.,0.,0.,0.,0.,
 0.,0.,0.,0.,0.,0.,0.,0.,0.,0.,0.,0.,0.,0.,0.,0.,0.,0.,0.,0.,0.,0.,0.,0
 .,0.,0.,0.,0.,0.,0.,0.,0.,0.,0.,0.,0.,0.,0.,0.,0.,0.,0.,0.,0.,0.,0.,0.
 ,0.,0.,0.,0.,0.,0.,0.,0.,0.,0.,0.,0.,0.,0.,0.,0.,0.,0.,0.,0.,0.,0.,0.,
 0.,0.,0.,0.,0.,0.,0.,0.,0.,0.,0.,0.,0.,0.,0.,0.,0.,0.,0.,0.,0.,0.,0.,0
 .,0.,0.,0.,0.,0.,0.,0.,0.,0.,0.,0.,0.,0.,0.,0.,0.,0.,0.,0.,0.,0.,0.,0.
 ,0.,0.,0.,0.,0.,0.,0.,0.,0.,0.,0.,0.,0.,0.,0.,0.,0.,0.,0.,0.,0.,0.,0.,
 0.,0.,0.,0.,0.,0.,0.,0.,0.,0.,0.,0.,0.,0.,0.,0.,0.,0.,0.,0.,0.,0.,0.,0
 .,0.,0.,0.,0.,0.,0.,0.,0.,0.,0.,0.,0.,0.,0.,0.,0.,0.,0.,0.,0.,0.,0.,0.
 ,0.,0.,0.,0.,0.,0.,0.,0.,0.,0.,0.,0.,0.,0.,0.,0.,0.,0.,0.,0.,0.,0.,0.,
 0.,0.,0.,0.,0.,0.,0.,0.,0.,0.,0.,0.,0.,0.,0.,0.,0.,0.,0.,0.,0.,0.,0.,0
 .,0.,0.,0.,0.,0.,0.,0.,0.,0.,0.,0.,0.,0.,0.,0.,0.,0.,0.,0.,0.,0.,0.,0.
 ,0.,0.,0.,0.,0.,0.,0.,0.,0.,0.,0.,0.,0.,0.,0.,0.,0.,0.,0.,0.,0.,0.,0.,
 0.,0.,0.,0.,0.,0.,0.,0.,0.,0.,0.,0.,0.,0.,0.,0.,0.,0.,0.,0.,0.,0.,0.,0
 .,0.,0.,0.,0.,0.,0.,0.,0.,0.,0.,0.,0.,0.,0.,0.,0.,0.,0.,0.,0.,0.,0.,0.
 ,0.,0.,0.,0.,0.,0.,0.,0.,0.,0.,0.,0.,0.,0.,0.,0.,0.,0.,0.,0.,0.,0.,0.,
 0.,0.,0.,0.,0.,0.,0.,0.,0.,0.,0.,0.,0.,0.,0.,0.,0.,0.,0.,0.,0.,0.,0.,-
 0.13330565,-0.19529287,0.04776110,0.14155790,0.20651164,0.,0.,0.,0.,0.
 ,0.,0.,0.,0.,0.,0.,0.,0.,0.,0.,0.,0.,0.,0.,0.,0.,0.,0.,0.,0.,0.,0.,0.,
 0.,0.,0.,0.,0.,0.,0.,0.,0.,0.,0.,0.,0.,0.,0.,0.,0.,0.,0.,0.,0.,0.,0.,0
 .,0.,0.,0.,0.,0.,0.,0.,0.,0.,0.,0.,0.,0.,0.,0.,0.,0.,0.,0.,0.,0.,0.,0.
 ,0.,0.,0.,0.,0.,0.,0.,0.,0.,0.,0.,0.,0.,0.,0.,0.,0.,0.,0.,0.,0.,0.,0.,
 0.,0.,0.,0.,0.,0.,0.,0.,0.,0.,0.,0.,0.,0.,0.,0.,0.,0.,0.,0.,0.,0.,0.,0
 .,0.,0.,0.,0.,0.,0.,0.,0.,0.,0.,0.,0.,0.,0.,0.,0.,0.,0.,0.,0.,0.,0.,0.
 ,0.,0.,0.,0.,0.,0.,0.,0.,0.,0.,0.,0.,0.,0.,0.,0.,0.,0.,0.,0.,0.,0.,0.,
 0.,0.,0.,0.,0.,0.,0.,0.,0.,0.,0.,0.,0.,0.,0.,0.,0.,0.,0.,0.,0.,0.,0.,0
 .,0.,0.,0.,0.,0.,0.,0.,0.,0.,0.,0.,0.,0.,0.,0.,0.,0.,0.,0.,0.,0.,0.,0.
 ,0.,0.,0.,0.,0.,0.,0.,0.,0.,0.,0.,0.,0.,0.,0.,0.,0.,0.,0.,0.,0.,0.,0.,
 0.,0.,0.,0.,0.,0.,0.,0.,0.,0.,0.,0.,0.,0.,0.,0.,0.,0.,0.,0.,0.,0.,0.,0
 .,0.,0.,0.,0.,0.,0.,0.,0.,0.,0.,0.,0.,0.,0.,0.,0.,0.,0.,0.,0.,0.,0.,0.
 ,0.,0.,0.,0.,0.,0.,0.,0.,0.,0.,0.,0.,0.,0.,0.,0.,0.,0.,0.,0.,0.,0.,0.,
 0.,0.,0.,0.,0.,0.,0.,0.,0.,0.,0.,0.,0.,0.,0.,0.,0.,0.,0.,0.,0.,0.,0.,0
 .,0.,0.,0.,0.,0.,0.,0.,0.,0.,0.,0.,0.,0.,0.,0.,0.,0.,0.,0.,0.,0.,0.,0.
 ,0.,0.,0.,0.,0.,0.,0.,0.,0.,0.,0.,0.,0.,0.,0.,0.,0.,0.,0.,0.,0.,0.,0.,
 0.,0.,0.,0.03990045,0.04700477,-0.05388937,-0.03927610,-0.04755346,0.0
 5664651,0.,0.,0.,0.,0.,0.,0.,0.,0.,0.,0.,0.,0.,0.,0.,0.,0.,0.,0.,0.,0.
 ,0.,0.,0.,0.,0.,0.,0.,0.,0.,0.,0.,0.,0.,0.,0.,0.,0.,0.,0.,0.,0.,0.,0.,
 0.,0.,0.,0.,0.,0.,0.,0.,0.,0.,0.,0.,0.,0.,0.,0.,0.,0.,0.,0.,0.,0.,0.,0
 .,0.,0.,0.,0.,0.,0.,0.,0.,0.,0.,0.,0.,0.,0.,0.,0.,0.,0.,0.,0.,0.,0.,0.
 ,0.,0.,0.,0.,0.,0.,0.,0.,0.,0.,0.,0.,0.,0.,0.,0.,0.,0.,0.,0.,0.,0.,0.,
 0.,0.,0.,0.,0.,0.,0.,0.,0.,0.,0.,0.,0.,0.,0.,0.,0.,0.,0.,0.,0.,0.,0.,0
 .,0.,0.,0.,0.,0.,0.,0.,0.,0.,0.,0.,0.,0.,0.,0.,0.,0.,0.,0.,0.,0.,0.,0.
 ,0.,0.,0.,0.,0.,0.,0.,0.,0.,0.,0.,0.,0.,0.,0.,0.,0.,0.,0.,0.,0.,0.,0.,
 0.,0.,0.,0.,0.,0.,0.,0.,0.,0.,0.,0.,0.,0.,0.,0.,0.,0.,0.,0.,0.,0.,0.,0
 .,0.,0.,0.,0.,0.,0.,0.,0.,0.,0.,0.,0.,0.,0.,0.,0.,0.,0.,0.,0.,0.,0.,0.
 ,0.,0.,0.,0.,0.,0.,0.,0.,0.,0.,0.,0.,0.,0.,0.,0.,0.,0.,0.,0.,0.,0.,0.,
 0.,0.,0.,0.,0.,0.,0.,0.,0.,0.,0.,0.,0.,0.,0.,0.,0.,0.,0.,0.,0.,0.,0.,0
 .,0.,0.,0.,0.,0.,0.,0.,0.,0.,0.,0.,0.,0.,0.,0.,0.,0.,0.,0.,0.,0.,0.,0.
 ,0.,0.,0.,0.,0.,0.,0.,0.,0.,0.,0.,0.,0.,0.,0.,0.,0.,0.,0.,0.,0.,0.,0.,
 0.,0.,0.,0.,0.,0.,0.,0.,0.,0.,0.,0.,0.,0.,0.,0.,0.,0.,0.,0.,0.,0.,0.,0
 .,0.,0.,0.,0.,0.,0.,0.,0.,0.,0.,0.,0.,0.,0.,0.,0.,0.,0.,0.,0.,0.,0.,0.
 ,0.,0.,0.,0.,0.,0.,0.,0.,0.,0.,-0.04835363,0.00072381,0.04356483,-0.00
 265649,0.00207569,0.01742774,0.05162857,0.,0.,0.,0.,0.,0.,0.,0.,0.,0.,
 0.,0.,0.,0.,0.,0.,0.,0.,0.,0.,0.,0.,0.,0.,0.,0.,0.,0.,0.,0.,0.,0.,0.,0
 .,0.,0.,0.,0.,0.,0.,0.,0.,0.,0.,0.,0.,0.,0.,0.,0.,0.,0.,0.,0.,0.,0.,0.
 ,0.,0.,0.,0.,0.,0.,0.,0.,0.,0.,0.,0.,0.,0.,0.,0.,0.,0.,0.,0.,0.,0.,0.,
 0.,0.,0.,0.,0.,0.,0.,0.,0.,0.,0.,0.,0.,0.,0.,0.,0.,0.,0.,0.,0.,0.,0.,0
 .,0.,0.,0.,0.,0.,0.,0.,0.,0.,0.,0.,0.,0.,0.,0.,0.,0.,0.,0.,0.,0.,0.,0.
 ,0.,0.,0.,0.,0.,0.,0.,0.,0.,0.,0.,0.,0.,0.,0.,0.,0.,0.,0.,0.,0.,0.,0.,
 0.,0.,0.,0.,0.,0.,0.,0.,0.,0.,0.,0.,0.,0.,0.,0.,0.,0.,0.,0.,0.,0.,0.,0
 .,0.,0.,0.,0.,0.,0.,0.,0.,0.,0.,0.,0.,0.,0.,0.,0.,0.,0.,0.,0.,0.,0.,0.
 ,0.,0.,0.,0.,0.,0.,0.,0.,0.,0.,0.,0.,0.,0.,0.,0.,0.,0.,0.,0.,0.,0.,0.,
 0.,0.,0.,0.,0.,0.,0.,0.,0.,0.,0.,0.,0.,0.,0.,0.,0.,0.,0.,0.,0.,0.,0.,0
 .,0.,0.,0.,0.,0.,0.,0.,0.,0.,0.,0.,0.,0.,0.,0.,0.,0.,0.,0.,0.,0.,0.,0.
 ,0.,0.,0.,0.,0.,0.,0.,0.,0.,0.,0.,0.,0.,0.,0.,0.,0.,0.,0.,0.,0.,0.,0.,
 0.,0.,0.,0.,0.,0.,0.,0.,0.,0.,0.,0.,0.,0.,0.,0.,0.,0.,0.,0.,0.,0.,0.,0
 .,0.,0.,0.,0.,0.,0.,0.,0.,0.,0.,0.,0.,0.,0.,0.,0.,0.,0.,0.,0.,0.,0.,0.
 ,0.,0.,0.,0.,0.,0.,0.,0.,0.,0.,0.,0.,0.,0.,0.,0.,0.,0.,0.,0.,0.,0.,0.,
 0.,0.,0.,0.,0.,0.,0.,0.,0.,0.,0.,0.,0.,0.,0.,0.,0.,0.,0.,0.,0.,0.00165
 049,-0.03679928,-0.00461822,-0.00245841,0.00121765,0.02077106,-0.00243
 483,0.03909834,0.,0.,0.,0.,0.,0.,0.,0.,0.,0.,0.,0.,0.,0.,0.,0.,0.,0.,0
 .,0.,0.,0.,0.,0.,0.,0.,0.,0.,0.,0.,0.,0.,0.,0.,0.,0.,0.,0.,0.,0.,0.,0.
 ,0.,0.,0.,0.,0.,0.,0.,0.,0.,0.,0.,0.,0.,0.,0.,0.,0.,0.,0.,0.,0.,0.,0.,
 0.,0.,0.,0.,0.,0.,0.,0.,0.,0.,0.,0.,0.,0.,0.,0.,0.,0.,0.,0.,0.,0.,0.,0
 .,0.,0.,0.,0.,0.,0.,0.,0.,0.,0.,0.,0.,0.,0.,0.,0.,0.,0.,0.,0.,0.,0.,0.
 ,0.,0.,0.,0.,0.,0.,0.,0.,0.,0.,0.,0.,0.,0.,0.,0.,0.,0.,0.,0.,0.,0.,0.,
 0.,0.,0.,0.,0.,0.,0.,0.,0.,0.,0.,0.,0.,0.,0.,0.,0.,0.,0.,0.,0.,0.,0.,0
 .,0.,0.,0.,0.,0.,0.,0.,0.,0.,0.,0.,0.,0.,0.,0.,0.,0.,0.,0.,0.,0.,0.,0.
 ,0.,0.,0.,0.,0.,0.,0.,0.,0.,0.,0.,0.,0.,0.,0.,0.,0.,0.,0.,0.,0.,0.,0.,
 0.,0.,0.,0.,0.,0.,0.,0.,0.,0.,0.,0.,0.,0.,0.,0.,0.,0.,0.,0.,0.,0.,0.,0
 .,0.,0.,0.,0.,0.,0.,0.,0.,0.,0.,0.,0.,0.,0.,0.,0.,0.,0.,0.,0.,0.,0.,0.
 ,0.,0.,0.,0.,0.,0.,0.,0.,0.,0.,0.,0.,0.,0.,0.,0.,0.,0.,0.,0.,0.,0.,0.,
 0.,0.,0.,0.,0.,0.,0.,0.,0.,0.,0.,0.,0.,0.,0.,0.,0.,0.,0.,0.,0.,0.,0.,0
 .,0.,0.,0.,0.,0.,0.,0.,0.,0.,0.,0.,0.,0.,0.,0.,0.,0.,0.,0.,0.,0.,0.,0.
 ,0.,0.,0.,0.,0.,0.,0.,0.,0.,0.,0.,0.,0.,0.,0.,0.,0.,0.,0.,0.,0.,0.,0.,
 0.,0.,0.,0.,0.,0.,0.,0.,0.,0.,0.,0.,0.,0.,0.,0.,0.,0.,0.,0.,0.,0.,0.,0
 .,0.,0.,0.,0.,0.,0.,0.,0.,0.,0.,0.,0.,0.04712056,-0.00413863,-0.306586
 14,-0.00036628,-0.00197368,-0.00447836,-0.04668815,0.00681566,0.328298
 05,0.,0.,0.,0.,0.,0.,0.,0.,0.,0.,0.,0.,0.,0.,0.,0.,0.,0.,0.,0.,0.,0.,0
 .,0.,0.,0.,0.,0.,0.,0.,0.,0.,0.,0.,0.,0.,0.,0.,0.,0.,0.,0.,0.,0.,0.,0.
 ,0.,0.,0.,0.,0.,0.,0.,0.,0.,0.,0.,0.,0.,0.,0.,0.,0.,0.,0.,0.,0.,0.,0.,
 0.,0.,0.,0.,0.,0.,0.,0.,0.,0.,0.,0.,0.,0.,0.,0.,0.,0.,0.,0.,0.,0.,0.,0
 .,0.,0.,0.,0.,0.,0.,0.,0.,0.,0.,0.,0.,0.,0.,0.,0.,0.,0.,0.,0.,0.,0.,0.
 ,0.,0.,0.,0.,0.,0.,0.,0.,0.,0.,0.,0.,0.,0.,0.,0.,0.,0.,0.,0.,0.,0.,0.,
 0.,0.,0.,0.,0.,0.,0.,0.,0.,0.,0.,0.,0.,0.,0.,0.,0.,0.,0.,0.,0.,0.,0.,0
 .,0.,0.,0.,0.,0.,0.,0.,0.,0.,0.,0.,0.,0.,0.,0.,0.,0.,0.,0.,0.,0.,0.,0.
 ,0.,0.,0.,0.,0.,0.,0.,0.,0.,0.,0.,0.,0.,0.,0.,0.,0.,0.,0.,0.,0.,0.,0.,
 0.,0.,0.,0.,0.,0.,0.,0.,0.,0.,0.,0.,0.,0.,0.,0.,0.,0.,0.,0.,0.,0.,0.,0
 .,0.,0.,0.,0.,0.,0.,0.,0.,0.,0.,0.,0.,0.,0.,0.,0.,0.,0.,0.,0.,0.,0.,0.
 ,0.,0.,0.,0.,0.,0.,0.,0.,0.,0.,0.,0.,0.,0.,0.,0.,0.,0.,0.,0.,0.,0.,0.,
 0.,0.,0.,0.,0.,0.,0.,0.,0.,0.,0.,0.,0.,0.,0.,0.,0.,0.,0.,0.,0.,0.,0.,0
 .,0.,0.,0.,0.,0.,0.,0.,0.,0.,0.,0.,0.,0.,0.,0.,0.,0.,0.,0.,0.,0.,0.,0.
 ,0.,0.,0.,0.,0.,0.,0.,0.,0.,0.,0.,0.,0.,0.,0.,0.,0.,0.,0.,0.,0.,0.,0.,
 0.,0.,0.,0.,0.,0.,0.,0.,0.,0.,0.,0.,0.,0.,0.,0.,0.,0.,0.,0.,0.,0.,0.,0
 .,0.,0.,0.,0.,0.,0.,0.,0.,-0.09436718,0.09899208,0.02439024,0.00972299
 ,-0.01518333,-0.00575093,-0.00241628,0.00386960,0.00042084,0.09972099,
 0.,0.,0.,0.,0.,0.,0.,0.,0.,0.,0.,0.,0.,0.,0.,0.,0.,0.,0.,0.,0.,0.,0.,0
 .,0.,0.,0.,0.,0.,0.,0.,0.,0.,0.,0.,0.,0.,0.,0.,0.,0.,0.,0.,0.,0.,0.,0.
 ,0.,0.,0.,0.,0.,0.,0.,0.,0.,0.,0.,0.,0.,0.,0.,0.,0.,0.,0.,0.,0.,0.,0.,
 0.,0.,0.,0.,0.,0.,0.,0.,0.,0.,0.,0.,0.,0.,0.,0.,0.,0.,0.,0.,0.,0.,0.,0
 .,0.,0.,0.,0.,0.,0.,0.,0.,0.,0.,0.,0.,0.,0.,0.,0.,0.,0.,0.,0.,0.,0.,0.
 ,0.,0.,0.,0.,0.,0.,0.,0.,0.,0.,0.,0.,0.,0.,0.,0.,0.,0.,0.,0.,0.,0.,0.,
 0.,0.,0.,0.,0.,0.,0.,0.,0.,0.,0.,0.,0.,0.,0.,0.,0.,0.,0.,0.,0.,0.,0.,0
 .,0.,0.,0.,0.,0.,0.,0.,0.,0.,0.,0.,0.,0.,0.,0.,0.,0.,0.,0.,0.,0.,0.,0.
 ,0.,0.,0.,0.,0.,0.,0.,0.,0.,0.,0.,0.,0.,0.,0.,0.,0.,0.,0.,0.,0.,0.,0.,
 0.,0.,0.,0.,0.,0.,0.,0.,0.,0.,0.,0.,0.,0.,0.,0.,0.,0.,0.,0.,0.,0.,0.,0
 .,0.,0.,0.,0.,0.,0.,0.,0.,0.,0.,0.,0.,0.,0.,0.,0.,0.,0.,0.,0.,0.,0.,0.
 ,0.,0.,0.,0.,0.,0.,0.,0.,0.,0.,0.,0.,0.,0.,0.,0.,0.,0.,0.,0.,0.,0.,0.,
 0.,0.,0.,0.,0.,0.,0.,0.,0.,0.,0.,0.,0.,0.,0.,0.,0.,0.,0.,0.,0.,0.,0.,0
 .,0.,0.,0.,0.,0.,0.,0.,0.,0.,0.,0.,0.,0.,0.,0.,0.,0.,0.,0.,0.,0.,0.,0.
 ,0.,0.,0.,0.,0.,0.,0.,0.,0.,0.,0.,0.,0.,0.,0.,0.,0.,0.,0.,0.,0.,0.,0.,
 0.,0.,0.,0.,0.,0.,0.,0.,0.,0.,0.,0.,0.,0.,0.,0.,0.,0.,0.,0.,0.,0.,0.,0
 .,0.,0.,0.,0.,0.,0.,0.,0.10269956,-0.26030120,-0.05331748,0.01093345,-
 0.01230217,-0.00533735,-0.00078005,0.00071397,0.00160577,-0.11022442,0
 .27478526,0.,0.,0.,0.,0.,0.,0.,0.,0.,0.,0.,0.,0.,0.,0.,0.,0.,0.,0.,0.,
 0.,0.,0.,0.,0.,0.,0.,0.,0.,0.,0.,0.,0.,0.,0.,0.,0.,0.,0.,0.,0.,0.,0.,0
 .,0.,0.,0.,0.,0.,0.,0.,0.,0.,0.,0.,0.,0.,0.,0.,0.,0.,0.,0.,0.,0.,0.,0.
 ,0.,0.,0.,0.,0.,0.,0.,0.,0.,0.,0.,0.,0.,0.,0.,0.,0.,0.,0.,0.,0.,0.,0.,
 0.,0.,0.,0.,0.,0.,0.,0.,0.,0.,0.,0.,0.,0.,0.,0.,0.,0.,0.,0.,0.,0.,0.,0
 .,0.,0.,0.,0.,0.,0.,0.,0.,0.,0.,0.,0.,0.,0.,0.,0.,0.,0.,0.,0.,0.,0.,0.
 ,0.,0.,0.,0.,0.,0.,0.,0.,0.,0.,0.,0.,0.,0.,0.,0.,0.,0.,0.,0.,0.,0.,0.,
 0.,0.,0.,0.,0.,0.,0.,0.,0.,0.,0.,0.,0.,0.,0.,0.,0.,0.,0.,0.,0.,0.,0.,0
 .,0.,0.,0.,0.,0.,0.,0.,0.,0.,0.,0.,0.,0.,0.,0.,0.,0.,0.,0.,0.,0.,0.,0.
 ,0.,0.,0.,0.,0.,0.,0.,0.,0.,0.,0.,0.,0.,0.,0.,0.,0.,0.,0.,0.,0.,0.,0.,
 0.,0.,0.,0.,0.,0.,0.,0.,0.,0.,0.,0.,0.,0.,0.,0.,0.,0.,0.,0.,0.,0.,0.,0
 .,0.,0.,0.,0.,0.,0.,0.,0.,0.,0.,0.,0.,0.,0.,0.,0.,0.,0.,0.,0.,0.,0.,0.
 ,0.,0.,0.,0.,0.,0.,0.,0.,0.,0.,0.,0.,0.,0.,0.,0.,0.,0.,0.,0.,0.,0.,0.,
 0.,0.,0.,0.,0.,0.,0.,0.,0.,0.,0.,0.,0.,0.,0.,0.,0.,0.,0.,0.,0.,0.,0.,0
 .,0.,0.,0.,0.,0.,0.,0.,0.,0.,0.,0.,0.,0.,0.,0.,0.,0.,0.,0.,0.,0.,0.,0.
 ,0.,0.,0.,0.,0.,0.,0.,0.,0.,0.,0.,0.,0.,0.,0.,0.,0.,0.,0.,0.,0.,0.,0.,
 0.,0.,0.,0.,0.,0.,0.,0.,0.,0.,0.,0.02667784,-0.05499428,-0.05287682,-0
 .00405285,0.00584501,0.00072917,0.01133307,-0.02544868,-0.00411177,-0.
 02212987,0.05787940,0.05651237\\0.,0.,0.,0.,0.,0.,0.,0.,0.,0.,0.,0.,0.
 ,0.,0.,0.,0.,0.,0.,0.,0.,0.,0.,0.,0.,0.,0.,0.,0.,0.,0.,0.,0.,0.,0.,0.,
 0.,0.,0.,0.,0.,0.,0.,0.,0.,0.,0.,0.,0.,0.,0.,0.,0.,0.,0.,0.,0.,0.,0.,0
 .,0.,0.,0.,0.,0.,0.,0.,0.,0.,0.,0.,0.,0.,0.,0.,0.,0.,0.,0.,0.,0.,0.,0.
 ,0.,0.,0.,0.,0.,0.,0.,0.,0.,0.,0.,0.,0.,0.,0.,0.,0.,0.,0.,0.,0.,0.,0.,
 0.,0.,0.,0.,0.,0.,0.,0.,0.,0.,0.,0.,0.,0.,0.,0.,0.,0.,0.,0.,0.,0.,0.,0
 .,0.,0.,0.,0.,0.,0.,0.,0.,0.,0.,0.,0.,0.,0.,0.,0.,0.,0.,0.,0.,0.,0.,0.
 ,0.,0.,0.,0.,0.,0.,0.,0.,0.,0.,0.,0.,0.,0.,0.,0.,0.,0.,0.,0.,0.,0.,0.,
 0.,0.,0.,0.,0.,0.,0.,0.,0.,0.,0.,0.,0.,0.,0.,0.,0.,0.,0.,0.,0.,0.,0.,0
 .,0.,0.,0.,0.,0.,0.,0.,0.,0.,0.,0.,0.,0.,0.,0.,0.,0.,0.,0.,0.,0.,0.,0.
 ,0.,0.,0.,0.,0.,0.,0.,0.,0.,0.,0.,0.,0.,0.,0.,0.,0.,0.,0.,0.,0.,0.,0.,
 0.,0.,0.,0.,0.,0.,0.,0.,0.,0.,0.,0.,0.,0.,0.,0.,0.,0.,0.,0.,0.,0.,0.,0
 .,0.,0.,0.,0.,0.,0.,0.,0.,0.,0.,0.,0.,0.,0.,0.,0.,0.,0.,0.,0.,0.,0.,0.
 ,0.,0.,0.,0.,0.,0.,0.,0.,0.,0.,0.,0.,0.,0.,0.,0.,0.,0.,0.,0.,0.,0.,0.,
 0.,0.,0.,0.,0.,0.,0.,0.,0.,0.,0.,0.,0.,0.,0.,0.,0.,0.,0.,0.,0.,0.,0.,0
 .,0.,0.,0.,0.,0.,0.,0.,0.,0.,0.,0.,0.,0.,0.,0.,0.,0.,0.,0.,0.,0.,0.,0.
 ,0.,0.,0.,0.,0.,0.,0.,0.,0.,0.,0.,0.,0.,0.,0.,0.,0.,0.,0.00000841,-0.0
 0003975,-0.00003658,-0.00001016,0.00001292,0.00001729,0.00002574,0.000
 00641,0.00000463,-0.00001498,0.00000688,0.00001569\\\@


 E PUR SI MUOVE    -- GALILEO GALILEI
 Job cpu time:       6 days 19 hours 38 minutes 51.3 seconds.
 Elapsed time:       0 days  2 hours 35 minutes 52.9 seconds.
 File lengths (MBytes):  RWF=   5923 Int=      0 D2E=      0 Chk=    168 Scr=      1
 Normal termination of Gaussian 16 at Fri Feb  2 03:05:00 2024.
