 Entering Gaussian System, Link 0=g16
 Input=H3.com
 Output=H3.log
 Initial command:
 /usr/local/g16/l1.exe "/home/rpaton/Gau-41191.inp" -scrdir="/home/rpaton/"
 Entering Link 1 = /usr/local/g16/l1.exe PID=     41192.
  
 Copyright (c) 1988-2017, Gaussian, Inc.  All Rights Reserved.
  
 This is part of the Gaussian(R) 16 program.  It is based on
 the Gaussian(R) 09 system (copyright 2009, Gaussian, Inc.),
 the Gaussian(R) 03 system (copyright 2003, Gaussian, Inc.),
 the Gaussian(R) 98 system (copyright 1998, Gaussian, Inc.),
 the Gaussian(R) 94 system (copyright 1995, Gaussian, Inc.),
 the Gaussian 92(TM) system (copyright 1992, Gaussian, Inc.),
 the Gaussian 90(TM) system (copyright 1990, Gaussian, Inc.),
 the Gaussian 88(TM) system (copyright 1988, Gaussian, Inc.),
 the Gaussian 86(TM) system (copyright 1986, Carnegie Mellon
 University), and the Gaussian 82(TM) system (copyright 1983,
 Carnegie Mellon University). Gaussian is a federally registered
 trademark of Gaussian, Inc.
  
 This software contains proprietary and confidential information,
 including trade secrets, belonging to Gaussian, Inc.
  
 This software is provided under written license and may be
 used, copied, transmitted, or stored only in accord with that
 written license.
  
 The following legend is applicable only to US Government
 contracts under FAR:
  
                    RESTRICTED RIGHTS LEGEND
  
 Use, reproduction and disclosure by the US Government is
 subject to restrictions as set forth in subparagraphs (a)
 and (c) of the Commercial Computer Software - Restricted
 Rights clause in FAR 52.227-19.
  
 Gaussian, Inc.
 340 Quinnipiac St., Bldg. 40, Wallingford CT 06492
  
  
 ---------------------------------------------------------------
 Warning -- This program may not be used in any manner that
 competes with the business of Gaussian, Inc. or will provide
 assistance to any competitor of Gaussian, Inc.  The licensee
 of this program is prohibited from giving any competitor of
 Gaussian, Inc. access to this program.  By using this program,
 the user acknowledges that Gaussian, Inc. is engaged in the
 business of creating and licensing software in the field of
 computational chemistry and represents and warrants to the
 licensee that it is not a competitor of Gaussian, Inc. and that
 it will not use this program in any manner prohibited above.
 ---------------------------------------------------------------
  

 Cite this work as:
 Gaussian 16, Revision B.01,
 M. J. Frisch, G. W. Trucks, H. B. Schlegel, G. E. Scuseria, 
 M. A. Robb, J. R. Cheeseman, G. Scalmani, V. Barone, 
 G. A. Petersson, H. Nakatsuji, X. Li, M. Caricato, A. V. Marenich, 
 J. Bloino, B. G. Janesko, R. Gomperts, B. Mennucci, H. P. Hratchian, 
 J. V. Ortiz, A. F. Izmaylov, J. L. Sonnenberg, D. Williams-Young, 
 F. Ding, F. Lipparini, F. Egidi, J. Goings, B. Peng, A. Petrone, 
 T. Henderson, D. Ranasinghe, V. G. Zakrzewski, J. Gao, N. Rega, 
 G. Zheng, W. Liang, M. Hada, M. Ehara, K. Toyota, R. Fukuda, 
 J. Hasegawa, M. Ishida, T. Nakajima, Y. Honda, O. Kitao, H. Nakai, 
 T. Vreven, K. Throssell, J. A. Montgomery, Jr., J. E. Peralta, 
 F. Ogliaro, M. J. Bearpark, J. J. Heyd, E. N. Brothers, K. N. Kudin, 
 V. N. Staroverov, T. A. Keith, R. Kobayashi, J. Normand, 
 K. Raghavachari, A. P. Rendell, J. C. Burant, S. S. Iyengar, 
 J. Tomasi, M. Cossi, J. M. Millam, M. Klene, C. Adamo, R. Cammi, 
 J. W. Ochterski, R. L. Martin, K. Morokuma, O. Farkas, 
 J. B. Foresman, and D. J. Fox, Gaussian, Inc., Wallingford CT, 2016.
 
 ******************************************
 Gaussian 16:  ES64L-G16RevB.01 20-Dec-2017
                22-Jul-2021 
 ******************************************
 %chk=H3.chk
 -------------------------
 # pop=nbo ub3lyp/6-31g(d)
 -------------------------
 1/38=1,172=1/1;
 2/12=2,17=6,18=5,40=1/2;
 3/5=1,6=6,7=1,11=2,25=1,30=1,74=-5,116=2/1,2,3;
 4//1;
 5/5=2,38=5/2;
 6/7=2,8=2,9=2,10=2,28=1,40=1/1,7;
 99/5=1,9=1/99;
 -------------------
 Title Card Required
 -------------------
 Symbolic Z-matrix:
 Charge =  0 Multiplicity = 2
 H                     0.        0.        0.93175 
 H                     0.        0.        0. 
 H                     0.        0.       -0.93175 
 
                          Input orientation:                          
 ---------------------------------------------------------------------
 Center     Atomic      Atomic             Coordinates (Angstroms)
 Number     Number       Type             X           Y           Z
 ---------------------------------------------------------------------
      1          1           0        0.000000    0.000000    0.931748
      2          1           0        0.000000    0.000000    0.000000
      3          1           0        0.000000    0.000000   -0.931748
 ---------------------------------------------------------------------
                    Distance matrix (angstroms):
                    1          2          3
     1  H    0.000000
     2  H    0.931748   0.000000
     3  H    1.863496   0.931748   0.000000
 Stoichiometry    H3(2)
 Framework group  D*H[O(H),C*(H.H)]
 Deg. of freedom     1
 Full point group                 D*H     NOp   8
 Largest Abelian subgroup         D2H     NOp   8
 Largest concise Abelian subgroup C2      NOp   2
                         Standard orientation:                         
 ---------------------------------------------------------------------
 Center     Atomic      Atomic             Coordinates (Angstroms)
 Number     Number       Type             X           Y           Z
 ---------------------------------------------------------------------
      1          1           0        0.000000    0.000000    0.931748
      2          1           0        0.000000    0.000000    0.000000
      3          1           0        0.000000    0.000000   -0.931748
 ---------------------------------------------------------------------
 Rotational constants (GHZ):           0.0000000         288.8052757         288.8052757
 Standard basis: 6-31G(d) (6D, 7F)
 There are     4 symmetry adapted cartesian basis functions of AG  symmetry.
 There are     0 symmetry adapted cartesian basis functions of B1G symmetry.
 There are     0 symmetry adapted cartesian basis functions of B2G symmetry.
 There are     0 symmetry adapted cartesian basis functions of B3G symmetry.
 There are     0 symmetry adapted cartesian basis functions of AU  symmetry.
 There are     2 symmetry adapted cartesian basis functions of B1U symmetry.
 There are     0 symmetry adapted cartesian basis functions of B2U symmetry.
 There are     0 symmetry adapted cartesian basis functions of B3U symmetry.
 There are     4 symmetry adapted basis functions of AG  symmetry.
 There are     0 symmetry adapted basis functions of B1G symmetry.
 There are     0 symmetry adapted basis functions of B2G symmetry.
 There are     0 symmetry adapted basis functions of B3G symmetry.
 There are     0 symmetry adapted basis functions of AU  symmetry.
 There are     2 symmetry adapted basis functions of B1U symmetry.
 There are     0 symmetry adapted basis functions of B2U symmetry.
 There are     0 symmetry adapted basis functions of B3U symmetry.
     6 basis functions,    12 primitive gaussians,     6 cartesian basis functions
     2 alpha electrons        1 beta electrons
       nuclear repulsion energy         1.4198506756 Hartrees.
 NAtoms=    3 NActive=    3 NUniq=    2 SFac= 2.25D+00 NAtFMM=   60 NAOKFM=F Big=F
 Integral buffers will be    131072 words long.
 Raffenetti 2 integral format.
 Two-electron integral symmetry is turned on.
 One-electron integrals computed using PRISM.
 NBasis=     6 RedAO= T EigKep=  4.66D-02  NBF=     4     0     0     0     0     2     0     0
 NBsUse=     6 1.00D-06 EigRej= -1.00D+00 NBFU=     4     0     0     0     0     2     0     0
 ExpMin= 1.61D-01 ExpMax= 1.87D+01 ExpMxC= 1.87D+01 IAcc=3 IRadAn=         5 AccDes= 0.00D+00
 Harris functional with IExCor=  402 and IRadAn=       5 diagonalized for initial guess.
 HarFok:  IExCor=  402 AccDes= 0.00D+00 IRadAn=         5 IDoV= 1 UseB2=F ITyADJ=14
 ICtDFT=  3500011 ScaDFX=  1.000000  1.000000  1.000000  1.000000
 FoFCou: FMM=F IPFlag=           0 FMFlag=      100000 FMFlg1=           0
         NFxFlg=           0 DoJE=T BraDBF=F KetDBF=T FulRan=T
         wScrn=  0.000000 ICntrl=       500 IOpCl=  0 I1Cent=   200000004 NGrid=           0
         NMat0=    1 NMatS0=      1 NMatT0=    0 NMatD0=    1 NMtDS0=    0 NMtDT0=    0
 Petite list used in FoFCou.
 Initial guess orbital symmetries:
 Alpha Orbitals:
       Occupied  (SGG) (SGU)
       Virtual   (SGG) (SGG) (SGU) (SGG)
 Beta  Orbitals:
       Occupied  (SGG)
       Virtual   (SGU) (SGG) (SGG) (SGU) (SGG)
 The electronic state of the initial guess is 2-SGU.
 Initial guess <Sx>= 0.0000 <Sy>= 0.0000 <Sz>= 0.5000 <S**2>= 0.7500 S= 0.5000
 Keep R1 and R2 ints in memory in symmetry-blocked form, NReq=847648.
 Requested convergence on RMS density matrix=1.00D-08 within 128 cycles.
 Requested convergence on MAX density matrix=1.00D-06.
 Requested convergence on             energy=1.00D-06.
 No special actions if energy rises.
 Integral accuracy reduced to 1.0D-05 until final iterations.
 Initial convergence to 1.0D-05 achieved.  Increase integral accuracy.
 SCF Done:  E(UB3LYP) =  -1.66874776198     A.U. after    9 cycles
            NFock=  9  Conv=0.26D-08     -V/T= 2.0132
 <Sx>= 0.0000 <Sy>= 0.0000 <Sz>= 0.5000 <S**2>= 0.7593 S= 0.5046
 <L.S>= 0.000000000000E+00
 Annihilation of the first spin contaminant:
 S**2 before annihilation     0.7593,   after     0.7500

 **********************************************************************

            Population analysis using the SCF Density.

 **********************************************************************

 Orbital symmetries:
 Alpha Orbitals:
       Occupied  (SGG) (SGU)
       Virtual   (SGG) (SGG) (SGU) (SGG)
 Beta  Orbitals:
       Occupied  (SGG)
       Virtual   (SGU) (SGG) (SGG) (SGU) (SGG)
 The electronic state is 2-SGU.
 Alpha  occ. eigenvalues --   -0.51057  -0.25611
 Alpha virt. eigenvalues --    0.15163   0.66750   0.74439   1.01661
  Beta  occ. eigenvalues --   -0.46000
  Beta virt. eigenvalues --   -0.09738   0.18935   0.71429   0.83229   1.05465
          Condensed to atoms (all electrons):
               1          2          3
     1  H    0.881398   0.201682  -0.131710
     2  H    0.201682   0.693896   0.201682
     3  H   -0.131710   0.201682   0.881398
          Atomic-Atomic Spin Densities.
               1          2          3
     1  H    0.736680   0.006050  -0.150299
     2  H    0.006050  -0.196961   0.006050
     3  H   -0.150299   0.006050   0.736680
 Mulliken charges and spin densities:
               1          2
     1  H    0.048630   0.592431
     2  H   -0.097260  -0.184861
     3  H    0.048630   0.592431
 Sum of Mulliken charges =  -0.00000   1.00000
 Mulliken charges and spin densities with hydrogens summed into heavy atoms:
               1          2
 Electronic spatial extent (au):  <R**2>=             13.5489
 Charge=              0.0000 electrons
 Dipole moment (field-independent basis, Debye):
    X=              0.0000    Y=              0.0000    Z=              0.0000  Tot=              0.0000
 Quadrupole moment (field-independent basis, Debye-Ang):
   XX=             -3.2863   YY=             -3.2863   ZZ=             -3.3114
   XY=              0.0000   XZ=              0.0000   YZ=              0.0000
 Traceless Quadrupole moment (field-independent basis, Debye-Ang):
   XX=              0.0084   YY=              0.0084   ZZ=             -0.0167
   XY=              0.0000   XZ=              0.0000   YZ=              0.0000
 Octapole moment (field-independent basis, Debye-Ang**2):
  XXX=             -0.0000  YYY=              0.0000  ZZZ=             -0.0000  XYY=             -0.0000
  XXY=              0.0000  XXZ=             -0.0000  XZZ=             -0.0000  YZZ=              0.0000
  YYZ=             -0.0000  XYZ=              0.0000
 Hexadecapole moment (field-independent basis, Debye-Ang**3):
 XXXX=             -3.1877 YYYY=             -3.1877 ZZZZ=            -15.1870 XXXY=              0.0000
 XXXZ=              0.0000 YYYX=              0.0000 YYYZ=              0.0000 ZZZX=              0.0000
 ZZZY=              0.0000 XXYY=             -1.0626 XXZZ=             -3.1302 YYZZ=             -3.1302
 XXYZ=              0.0000 YYXZ=              0.0000 ZZXY=              0.0000
 N-N= 1.419850675612D+00 E-N=-5.998862625401D+00  KE= 1.646956637938D+00
 Symmetry AG   KE= 1.009141236876D+00
 Symmetry B1G  KE= 0.000000000000D+00
 Symmetry B2G  KE= 0.000000000000D+00
 Symmetry B3G  KE= 0.000000000000D+00
 Symmetry AU   KE= 0.000000000000D+00
 Symmetry B1U  KE= 6.378154010618D-01
 Symmetry B2U  KE= 0.000000000000D+00
 Symmetry B3U  KE= 0.000000000000D+00
 Symmetry AG   SP=-2.695326600799D-16
 Symmetry B1G  SP= 0.000000000000D+00
 Symmetry B2G  SP= 0.000000000000D+00
 Symmetry B3G  SP= 0.000000000000D+00
 Symmetry AU   SP= 0.000000000000D+00
 Symmetry B1U  SP= 1.000000000000D+00
 Symmetry B2U  SP= 0.000000000000D+00
 Symmetry B3U  SP= 0.000000000000D+00
                          Isotropic Fermi Contact Couplings
        Atom                 a.u.       MegaHertz       Gauss      10(-4) cm-1
     1  H(1)               0.20422     912.85717     325.73014     304.49638
     2  H(1)              -0.04499    -201.09356     -71.75518     -67.07759
     3  H(1)               0.20422     912.85717     325.73014     304.49638
 --------------------------------------------------------
       Center         ----  Spin Dipole Couplings  ----
                      3XX-RR        3YY-RR        3ZZ-RR
 --------------------------------------------------------
     1   Atom        0.008021      0.008021     -0.016041
     2   Atom       -0.115214     -0.115214      0.230427
     3   Atom        0.008021      0.008021     -0.016041
 --------------------------------------------------------
                        XY            XZ            YZ
 --------------------------------------------------------
     1   Atom        0.000000      0.000000      0.000000
     2   Atom        0.000000     -0.000000      0.000000
     3   Atom        0.000000      0.000000      0.000000
 --------------------------------------------------------


 ---------------------------------------------------------------------------------
              Anisotropic Spin Dipole Couplings in Principal Axis System
 ---------------------------------------------------------------------------------

       Atom             a.u.   MegaHertz   Gauss  10(-4) cm-1        Axes

              Baa    -0.0160    -8.559    -3.054    -2.855 -0.0000  0.0000  1.0000
     1 H(1)   Bbb     0.0080     4.279     1.527     1.427 -0.0000  1.0000 -0.0000
              Bcc     0.0080     4.279     1.527     1.427  1.0000  0.0000  0.0000
 
              Baa    -0.1152   -61.473   -21.935   -20.505  0.0000  1.0000  0.0000
     2 H(1)   Bbb    -0.1152   -61.473   -21.935   -20.505  1.0000  0.0000  0.0000
              Bcc     0.2304   122.945    43.870    41.010 -0.0000  0.0000  1.0000
 
              Baa    -0.0160    -8.559    -3.054    -2.855 -0.0000  0.0000  1.0000
     3 H(1)   Bbb     0.0080     4.279     1.527     1.427 -0.0000  1.0000 -0.0000
              Bcc     0.0080     4.279     1.527     1.427  1.0000  0.0000  0.0000
 

 ---------------------------------------------------------------------------------

 ******************************Gaussian NBO Version 3.1******************************
             N A T U R A L   A T O M I C   O R B I T A L   A N D
          N A T U R A L   B O N D   O R B I T A L   A N A L Y S I S
 ******************************Gaussian NBO Version 3.1******************************
       /RESON  / : Allow strongly delocalized NBO set

 Analyzing the SCF density

 Job title: Title Card Required                                             

 Storage needed:       162 in NPA,       173 in NBO ( 104857543 available)


 NATURAL POPULATIONS:  Natural atomic orbital occupancies 
                                                          
   NAO  Atom  No  lang   Type(AO)    Occupancy
 --------------------------------------------
     1    H    1  S      Val( 1S)     0.92305
     2    H    1  S      Ryd( 2S)     0.00485

     3    H    2  S      Val( 1S)     1.14399
     4    H    2  S      Ryd( 2S)     0.00022

     5    H    3  S      Val( 1S)     0.92305
     6    H    3  S      Ryd( 2S)     0.00485


 Summary of Natural Population Analysis:                  
                                                          
                                       Natural Population 
                Natural  -----------------------------------------------
    Atom  No    Charge         Core      Valence    Rydberg      Total
 -----------------------------------------------------------------------
      H    1    0.07210      0.00000     0.92305    0.00485     0.92790
      H    2   -0.14420      0.00000     1.14399    0.00022     1.14420
      H    3    0.07210      0.00000     0.92305    0.00485     0.92790
 =======================================================================
   * Total *    0.00000      0.00000     2.99008    0.00992     3.00000

                                 Natural Population      
 --------------------------------------------------------
   Valence                    2.99008 ( 99.6693% of   3)
   Natural Minimal Basis      2.99008 ( 99.6693% of   3)
   Natural Rydberg Basis      0.00992 (  0.3307% of   3)
 --------------------------------------------------------

    Atom  No          Natural Electron Configuration
 ----------------------------------------------------------------------------
      H    1            1S( 0.92)
      H    2            1S( 1.14)
      H    3            1S( 0.92)


 ***************************************************
 *******         Alpha spin orbitals         *******
 ***************************************************


 NATURAL POPULATIONS:  Natural atomic orbital occupancies 
                                                          
   NAO  Atom  No  lang   Type(AO)    Occupancy      Energy
 ----------------------------------------------------------
     1    H    1  S      Val( 1S)     0.73343      -0.15402
     2    H    1  S      Ryd( 2S)     0.00378       0.69847

     3    H    2  S      Val( 1S)     0.52546      -0.07553
     4    H    2  S      Ryd( 2S)     0.00012       0.80007

     5    H    3  S      Val( 1S)     0.73343      -0.15402
     6    H    3  S      Ryd( 2S)     0.00378       0.69847


 Summary of Natural Population Analysis:                  
                                                          
                                       Natural Population 
                Natural  -----------------------------------------------
    Atom  No    Charge         Core      Valence    Rydberg      Total
 -----------------------------------------------------------------------
      H    1   -0.23721      0.00000     0.73343    0.00378     0.73721
      H    2   -0.02558      0.00000     0.52546    0.00012     0.52558
      H    3   -0.23721      0.00000     0.73343    0.00378     0.73721
 =======================================================================
   * Total *   -0.50000      0.00000     1.99232    0.00768     2.00000

                                 Natural Population      
 --------------------------------------------------------
   Valence                    1.99232 ( 99.6158% of   2)
   Natural Minimal Basis      1.99232 ( 99.6158% of   2)
   Natural Rydberg Basis      0.00768 (  0.3842% of   2)
 --------------------------------------------------------

    Atom  No          Natural Electron Configuration
 ----------------------------------------------------------------------------
      H    1            1S( 0.73)
      H    2            1S( 0.53)
      H    3            1S( 0.73)


 NATURAL BOND ORBITAL ANALYSIS, alpha spin orbitals:

                       Occupancies       Lewis Structure    Low   High
           Occ.    -------------------  -----------------   occ   occ
  Cycle   Thresh.   Lewis   Non-Lewis     CR  BD  3C  LP    (L)   (NL)   Dev
 =============================================================================
   1(1)    0.90     1.73020   0.26980      0   1   0   1     1      1    0.12
   2(2)    0.90     1.73020   0.26980      0   1   0   1     1      1    0.12
   3(1)    0.80     1.73020   0.26980      0   1   0   1     1      1    0.12
   4(2)    0.80     1.73020   0.26980      0   1   0   1     1      1    0.12
   5(1)    0.70     1.46741   0.53259      0   0   0   2     0      1    0.12
   6(2)    0.70     1.46741   0.53259      0   0   0   2     0      1    0.12
   7(1)    0.60     1.46741   0.53259      0   0   0   2     0      1    0.12
   8(2)    0.60     1.46741   0.53259      0   0   0   2     0      1    0.12
   9(1)    0.50     1.46741   0.53259      0   0   0   2     0      1    0.12
  10(2)    0.50     1.46741   0.53259      0   0   0   2     0      1    0.12
  11(1)    0.90     1.73020   0.26980      0   1   0   1     1      1    0.12
 -----------------------------------------------------------------------------

 Structure accepted: RESONANCE keyword permits strongly delocalized structure

 --------------------------------------------------------
   Valence Lewis             1.73020 ( 86.510% of   2)
  ==================       ============================
   Total Lewis               1.73020 ( 86.510% of   2)
  -----------------------------------------------------
   Valence non-Lewis         0.26227 ( 13.114% of   2)
   Rydberg non-Lewis         0.00753 (  0.377% of   2)
  ==================       ============================
   Total non-Lewis           0.26980 ( 13.490% of   2)
 --------------------------------------------------------


       (Occupancy)   Bond orbital/ Coefficients/ Hybrids
 ---------------------------------------------------------------------------------
     1. (0.99649) BD ( 1) H   1 - H   2  
                ( 64.14%)   0.8009* H   1 s(100.00%)
                                            1.0000  0.0072
                ( 35.86%)   0.5988* H   2 s(100.00%)
                                            0.9999  0.0149
     2. (0.73371) LP ( 1) H   3           s(100.00%)
                                            0.9998 -0.0195
     3. (0.00402) RY*( 1) H   1           s(100.00%)
                                           -0.0072  1.0000
     4. (0.00000) RY*( 1) H   2           s(100.00%)
     5. (0.00351) RY*( 1) H   3           s(100.00%)
                                            0.0195  0.9998
     6. (0.26227) BD*( 1) H   1 - H   2  
                ( 35.86%)   0.5988* H   1 s(100.00%)
                                           -1.0000 -0.0072
                ( 64.14%)  -0.8009* H   2 s(100.00%)
                                           -0.9999 -0.0149


 NHO Directionality and "Bond Bending" (deviations from line of nuclear centers)

         [Thresholds for printing:  angular deviation  >  1.0 degree]
                                    hybrid p-character > 25.0%
                                    orbital occupancy  >  0.10e

                                Line of Centers        Hybrid 1              Hybrid 2
                                ---------------  -------------------   ------------------
                NBO               Theta   Phi    Theta   Phi    Dev    Theta   Phi    Dev
 ========================================================================================
    None exceeding thresholds


 Second Order Perturbation Theory Analysis of Fock Matrix in NBO Basis

     Threshold for printing:   0.25 kcal/mol
    (Intermolecular threshold: 0.03 kcal/mol)
                                                                              E(2)  E(j)-E(i) F(i,j)
         Donor NBO (i)                     Acceptor NBO (j)                 kcal/mol   a.u.    a.u. 
 ===================================================================================================

 within unit  1
   1. BD (   1) H   1 - H   2        /  6. BD*(   1) H   1 - H   2            1.86    0.63    0.050
   6. BD*(   1) H   1 - H   2        /  3. RY*(   1) H   1                   16.02    0.49    0.218
   6. BD*(   1) H   1 - H   2        /  4. RY*(   1) H   2                    9.98    0.59    0.190

 from unit  1 to unit  2
   1. BD (   1) H   1 - H   2        /  5. RY*(   1) H   3                    2.51    1.13    0.067
   6. BD*(   1) H   1 - H   2        /  5. RY*(   1) H   3                   11.01    0.50    0.182

 from unit  2 to unit  1
   2. LP (   1) H   3                /  3. RY*(   1) H   1                    1.56    0.86    0.054
   2. LP (   1) H   3                /  4. RY*(   1) H   2                    5.81    0.95    0.110
   2. LP (   1) H   3                /  6. BD*(   1) H   1 - H   2          162.83    0.36    0.306

 within unit  2
   2. LP (   1) H   3                /  5. RY*(   1) H   3                    5.76    0.86    0.104


 Natural Bond Orbitals (Summary):

                                                            Principal Delocalizations
           NBO                        Occupancy    Energy   (geminal,vicinal,remote)
 ====================================================================================
 Molecular unit  1  (H2)
     1. BD (   1) H   1 - H   2          0.99649    -0.42515  6(g),5(r)
     3. RY*(   1) H   1                  0.00402     0.69670   
     4. RY*(   1) H   2                  0.00000     0.79567   
     6. BD*(   1) H   1 - H   2          0.26227     0.20177  3(g),5(r),4(g)
       -------------------------------
              Total Lewis    0.99649  ( 78.9122%)
        Valence non-Lewis    0.26227  ( 20.7691%)
        Rydberg non-Lewis    0.00402  (  0.3187%)
       -------------------------------
            Total unit  1    1.26279  (100.0000%)
           Charge unit  1   -0.26279

 Molecular unit  2  (H)
     2. LP (   1) H   3                  0.73371    -0.15838  6(r),4(r),5(g),3(r)
     5. RY*(   1) H   3                  0.00351     0.70283   
       -------------------------------
              Total Lewis    0.73371  ( 99.5244%)
        Valence non-Lewis    0.00000  (  0.0000%)
        Rydberg non-Lewis    0.00351  (  0.4756%)
       -------------------------------
            Total unit  2    0.73721  (100.0000%)
           Charge unit  2   -0.23721


 ***************************************************
 *******         Beta  spin orbitals         *******
 ***************************************************


 NATURAL POPULATIONS:  Natural atomic orbital occupancies 
                                                          
   NAO  Atom  No  lang   Type(AO)    Occupancy      Energy
 ----------------------------------------------------------
     1    H    1  S      Val( 1S)     0.18962      -0.00202
     2    H    1  S      Ryd( 2S)     0.00107       0.77236

     3    H    2  S      Val( 1S)     0.61853      -0.10277
     4    H    2  S      Ryd( 2S)     0.00010       0.79531

     5    H    3  S      Val( 1S)     0.18962      -0.00202
     6    H    3  S      Ryd( 2S)     0.00107       0.77236


 Summary of Natural Population Analysis:                  
                                                          
                                       Natural Population 
                Natural  -----------------------------------------------
    Atom  No    Charge         Core      Valence    Rydberg      Total
 -----------------------------------------------------------------------
      H    1    0.30931      0.00000     0.18962    0.00107     0.19069
      H    2   -0.11863      0.00000     0.61853    0.00010     0.61863
      H    3    0.30931      0.00000     0.18962    0.00107     0.19069
 =======================================================================
   * Total *    0.50000      0.00000     0.99776    0.00224     1.00000

                                 Natural Population      
 --------------------------------------------------------
   Valence                    0.99776 ( 99.7763% of   1)
   Natural Minimal Basis      0.99776 ( 99.7763% of   1)
   Natural Rydberg Basis      0.00224 (  0.2237% of   1)
 --------------------------------------------------------

    Atom  No          Natural Electron Configuration
 ----------------------------------------------------------------------------
      H    1            1S( 0.19)
      H    2            1S( 0.62)
      H    3            1S( 0.19)


 NATURAL BOND ORBITAL ANALYSIS, beta spin orbitals:

                       Occupancies       Lewis Structure    Low   High
           Occ.    -------------------  -----------------   occ   occ
  Cycle   Thresh.   Lewis   Non-Lewis     CR  BD  3C  LP    (L)   (NL)   Dev
 =============================================================================
   1(1)    0.90     0.61863   0.38137      0   0   0   1     1      0    0.12
   2(2)    0.90     0.61863   0.38137      0   0   0   1     1      0    0.12
   3(1)    0.80     0.80931   0.19069      0   1   0   0     0      0    0.12
   4(2)    0.80     0.80931   0.19069      0   1   0   0     0      0    0.12
   5(1)    0.70     0.80931   0.19069      0   1   0   0     0      0    0.12
   6(2)    0.70     0.80931   0.19069      0   1   0   0     0      0    0.12
   7(1)    0.60     0.61863   0.38137      0   0   0   1     0      0    0.12
   8(2)    0.60     0.61863   0.38137      0   0   0   1     0      0    0.12
   9(1)    0.50     0.61863   0.38137      0   0   0   1     0      0    0.12
  10(2)    0.50     0.61863   0.38137      0   0   0   1     0      0    0.12
  11(1)    0.80     0.80931   0.19069      0   1   0   0     0      0    0.12
 -----------------------------------------------------------------------------

 Structure accepted: RESONANCE keyword permits strongly delocalized structure

 --------------------------------------------------------
   Valence Lewis             0.80931 ( 80.931% of   1)
  ==================       ============================
   Total Lewis               0.80931 ( 80.931% of   1)
  -----------------------------------------------------
   Valence non-Lewis         0.19069 ( 19.069% of   1)
   Rydberg non-Lewis         0.00000 (  0.000% of   1)
  ==================       ============================
   Total non-Lewis           0.19069 ( 19.069% of   1)
 --------------------------------------------------------


       (Occupancy)   Bond orbital/ Coefficients/ Hybrids
 ---------------------------------------------------------------------------------
     1. (0.80931) BD ( 1) H   1 - H   2  
                ( 23.56%)   0.4854* H   1 s(100.00%)
                                            0.9972  0.0749
                ( 76.44%)   0.8743* H   2 s(100.00%)
                                            0.9999 -0.0127
     2. (0.19069) LP*( 1) H   3           s(100.00%)
                                            0.9972  0.0749
     3. (0.00000) RY*( 1) H   1           s(100.00%)
     4. (0.00000) RY*( 1) H   2           s(100.00%)
     5. (0.00000) RY*( 1) H   3           s(100.00%)
     6. (0.00000) BD*( 1) H   1 - H   2  
                ( 76.44%)   0.8743* H   1 s(100.00%)
                ( 23.56%)  -0.4854* H   2 s(100.00%)


 NHO Directionality and "Bond Bending" (deviations from line of nuclear centers)

         [Thresholds for printing:  angular deviation  >  1.0 degree]
                                    hybrid p-character > 25.0%
                                    orbital occupancy  >  0.10e

                                Line of Centers        Hybrid 1              Hybrid 2
                                ---------------  -------------------   ------------------
                NBO               Theta   Phi    Theta   Phi    Dev    Theta   Phi    Dev
 ========================================================================================
    None exceeding thresholds


 Second Order Perturbation Theory Analysis of Fock Matrix in NBO Basis

     Threshold for printing:   0.25 kcal/mol
    (Intermolecular threshold: 0.03 kcal/mol)
                                                                              E(2)  E(j)-E(i) F(i,j)
         Donor NBO (i)                     Acceptor NBO (j)                 kcal/mol   a.u.    a.u. 
 ===================================================================================================

 within unit  1
   1. BD (   1) H   1 - H   2        /  4. RY*(   1) H   2                    1.17    1.14    0.051
   1. BD (   1) H   1 - H   2        /  6. BD*(   1) H   1 - H   2           10.32    0.61    0.112

 from unit  1 to unit  2
   1. BD (   1) H   1 - H   2        /  2. LP*(   1) H   3                   94.51    0.37    0.237
   1. BD (   1) H   1 - H   2        /  5. RY*(   1) H   3                    5.92    1.09    0.113

 from unit  2 to unit  1
   2. LP*(   1) H   3                /  3. RY*(   1) H   1                    0.31    0.71    0.043
   2. LP*(   1) H   3                /  4. RY*(   1) H   2                    1.73    0.77    0.106
   2. LP*(   1) H   3                /  6. BD*(   1) H   1 - H   2           26.45    0.24    0.230

 within unit  2
   2. LP*(   1) H   3                /  5. RY*(   1) H   3                    9.02    0.71    0.232


 Natural Bond Orbitals (Summary):

                                                            Principal Delocalizations
           NBO                        Occupancy    Energy   (geminal,vicinal,remote)
 ====================================================================================
 Molecular unit  1  (H2)
     1. BD (   1) H   1 - H   2          0.80931    -0.34488  2(r),6(g),5(r),4(g)
     3. RY*(   1) H   1                  0.00000     0.74174   
     4. RY*(   1) H   2                  0.00000     0.79843   
     6. BD*(   1) H   1 - H   2          0.00000     0.26759   
       -------------------------------
              Total Lewis    0.80931  (100.0000%)
        Valence non-Lewis    0.00000  (  0.0000%)
        Rydberg non-Lewis    0.00000  (  0.0000%)
       -------------------------------
            Total unit  1    0.80931  (100.0000%)
           Charge unit  1    0.19069

 Molecular unit  2  (H)
     2. LP*(   1) H   3                  0.19069     0.02859  6(r),5(g),4(r),3(r)
     5. RY*(   1) H   3                  0.00000     0.74174   
       -------------------------------
              Total Lewis    0.00000  (  0.0000%)
        Valence non-Lewis    0.19069  (100.0000%)
        Rydberg non-Lewis    0.00000  (  0.0000%)
       -------------------------------
            Total unit  2    0.19069  (100.0000%)
           Charge unit  2    0.30931
 1\1\GINC-DRMAXIMUS\SP\UB3LYP\6-31G(d)\H3(2)\RPATON\22-Jul-2021\0\\# po
 p=nbo ub3lyp/6-31g(d)\\Title Card Required\\0,2\H,0,0.,0.,0.931748\H,0
 ,0.,0.,0.\H,0,0.,0.,-0.931748\\Version=ES64L-G16RevB.01\State=2-SGU\HF
 =-1.6687478\S2=0.759292\S2-1=0.\S2A=0.75\RMSD=2.561e-09\Dipole=0.,0.,0
 .\Quadrupole=0.0062118,0.0062118,-0.0124236,0.,0.,0.\PG=D*H [O(H1),C*(
 H1.H1)]\\@


 I WISH TO HAVE NO CONNECTION WITH ANY SHIP THAT DOES NOT SAIL FAST,
 FOR I INTEND TO GO IN HARM'S WAY.
     -- JOHN PAUL JONES, USN 1747-1792
 Job cpu time:       0 days  0 hours  0 minutes  1.4 seconds.
 Elapsed time:       0 days  0 hours  0 minutes  1.4 seconds.
 File lengths (MBytes):  RWF=      6 Int=      0 D2E=      0 Chk=      1 Scr=      1
 Normal termination of Gaussian 16 at Thu Jul 22 10:38:43 2021.
