 Entering Gaussian System, Link 0=g16.bin
 Initial command:
 /net/software/testing/software/gaussian/g16.C.01/g16/l1.exe "/net/ascratch/people/plgmradon/slurm_jobdir/845521/Gau-24105.inp" -scrdir="/net/ascratch/people/plgmradon/slurm_jobdir/845521/"
 Default CPUs for threads: 4-6,10,14,15,19,20
 Default is to use a total of   8 processors:
                                8 via shared-memory
                                1 via Linda
 Entering Link 1 = /net/software/testing/software/gaussian/g16.C.01/g16/l1.exe PID=     24106.
  
 Copyright (c) 1988-2019, Gaussian, Inc.  All Rights Reserved.
  
 This is part of the Gaussian(R) 16 program.  It is based on
 the Gaussian(R) 09 system (copyright 2009, Gaussian, Inc.),
 the Gaussian(R) 03 system (copyright 2003, Gaussian, Inc.),
 the Gaussian(R) 98 system (copyright 1998, Gaussian, Inc.),
 the Gaussian(R) 94 system (copyright 1995, Gaussian, Inc.),
 the Gaussian 92(TM) system (copyright 1992, Gaussian, Inc.),
 the Gaussian 90(TM) system (copyright 1990, Gaussian, Inc.),
 the Gaussian 88(TM) system (copyright 1988, Gaussian, Inc.),
 the Gaussian 86(TM) system (copyright 1986, Carnegie Mellon
 University), and the Gaussian 82(TM) system (copyright 1983,
 Carnegie Mellon University). Gaussian is a federally registered
 trademark of Gaussian, Inc.
  
 This software contains proprietary and confidential information,
 including trade secrets, belonging to Gaussian, Inc.
  
 This software is provided under written license and may be
 used, copied, transmitted, or stored only in accord with that
 written license.
  
 The following legend is applicable only to US Government
 contracts under FAR:
  
                    RESTRICTED RIGHTS LEGEND
  
 Use, reproduction and disclosure by the US Government is
 subject to restrictions as set forth in subparagraphs (a)
 and (c) of the Commercial Computer Software - Restricted
 Rights clause in FAR 52.227-19.
  
 Gaussian, Inc.
 340 Quinnipiac St., Bldg. 40, Wallingford CT 06492
  
  
 ---------------------------------------------------------------
 Warning -- This program may not be used in any manner that
 competes with the business of Gaussian, Inc. or will provide
 assistance to any competitor of Gaussian, Inc.  The licensee
 of this program is prohibited from giving any competitor of
 Gaussian, Inc. access to this program.  By using this program,
 the user acknowledges that Gaussian, Inc. is engaged in the
 business of creating and licensing software in the field of
 computational chemistry and represents and warrants to the
 licensee that it is not a competitor of Gaussian, Inc. and that
 it will not use this program in any manner prohibited above.
 ---------------------------------------------------------------
  

 Cite this work as:
 Gaussian 16, Revision C.01,
 M. J. Frisch, G. W. Trucks, H. B. Schlegel, G. E. Scuseria, 
 M. A. Robb, J. R. Cheeseman, G. Scalmani, V. Barone, 
 G. A. Petersson, H. Nakatsuji, X. Li, M. Caricato, A. V. Marenich, 
 J. Bloino, B. G. Janesko, R. Gomperts, B. Mennucci, H. P. Hratchian, 
 J. V. Ortiz, A. F. Izmaylov, J. L. Sonnenberg, D. Williams-Young, 
 F. Ding, F. Lipparini, F. Egidi, J. Goings, B. Peng, A. Petrone, 
 T. Henderson, D. Ranasinghe, V. G. Zakrzewski, J. Gao, N. Rega, 
 G. Zheng, W. Liang, M. Hada, M. Ehara, K. Toyota, R. Fukuda, 
 J. Hasegawa, M. Ishida, T. Nakajima, Y. Honda, O. Kitao, H. Nakai, 
 T. Vreven, K. Throssell, J. A. Montgomery, Jr., J. E. Peralta, 
 F. Ogliaro, M. J. Bearpark, J. J. Heyd, E. N. Brothers, K. N. Kudin, 
 V. N. Staroverov, T. A. Keith, R. Kobayashi, J. Normand, 
 K. Raghavachari, A. P. Rendell, J. C. Burant, S. S. Iyengar, 
 J. Tomasi, M. Cossi, J. M. Millam, M. Klene, C. Adamo, R. Cammi, 
 J. W. Ochterski, R. L. Martin, K. Morokuma, O. Farkas, 
 J. B. Foresman, and D. J. Fox, Gaussian, Inc., Wallingford CT, 2019.
 
 ******************************************
 Gaussian 16:  ES64L-G16RevC.01  3-Jul-2019
                14-Sep-2022 
 ******************************************
 SetSPE:  set environment variable "MP_BIND" = "yes"
 SetSPE:  set environment variable "MP_BLIST" = "4,5,6,10,14,15,19,20"
 -------------------------------------------
 #P RHF/Def2SVP Opt Freq pop=regular GFInput
 -------------------------------------------
 1/18=20,19=15,38=1/1,3;
 2/9=110,12=2,17=6,18=5,40=1/2;
 3/5=43,7=101,11=1,24=10,25=1,30=1,71=1,116=1/1,2,3;
 4//1;
 5/5=2,38=5/2;
 6/28=1/1;
 7//1,2,3,16;
 1/18=20,19=15/3(2);
 2/9=110/2;
 99//99;
 2/9=110/2;
 3/5=43,7=101,11=1,25=1,30=1,71=1,116=1/1,2,3;
 4/5=5,16=3,69=1/1;
 5/5=2,38=5/2;
 7//1,2,3,16;
 1/18=20,19=15/3(-5);
 2/9=110/2;
 6/19=2,28=1/1;
 99/9=1/99;
 Leave Link    1 at Wed Sep 14 13:03:12 2022, MaxMem=           0 cpu:               1.7 elap:               0.2
 (Enter /net/software/testing/software/gaussian/g16.C.01/g16/l101.exe)
 ---------
 h2o, vibr
 ---------
 Symbolic Z-matrix:
 Charge =  0 Multiplicity = 1
 O                     0.        0.        0. 
 H                     0.6       0.6       0.6 
 H                    -0.6      -0.6       0.6 
 
 ITRead=  0  0  0
 MicOpt= -1 -1 -1
 NAtoms=      3 NQM=        3 NQMF=       0 NMMI=      0 NMMIF=      0
                NMic=       0 NMicF=      0.
                    Isotopes and Nuclear Properties:
 (Nuclear quadrupole moments (NQMom) in fm**2, nuclear magnetic moments (NMagM)
  in nuclear magnetons)

  Atom         1           2           3
 IAtWgt=          16           1           1
 AtmWgt=  15.9949146   1.0078250   1.0078250
 NucSpn=           0           1           1
 AtZEff=  -0.0000000  -0.0000000  -0.0000000
 NQMom=    0.0000000   0.0000000   0.0000000
 NMagM=    0.0000000   2.7928460   2.7928460
 AtZNuc=   8.0000000   1.0000000   1.0000000
 Leave Link  101 at Wed Sep 14 13:03:12 2022, MaxMem=   536870912 cpu:               1.1 elap:               0.2
 (Enter /net/software/testing/software/gaussian/g16.C.01/g16/l103.exe)

 GradGradGradGradGradGradGradGradGradGradGradGradGradGradGradGradGradGrad
 Berny optimization.
 Initialization pass.
                           ----------------------------
                           !    Initial Parameters    !
                           ! (Angstroms and Degrees)  !
 --------------------------                            --------------------------
 ! Name  Definition              Value          Derivative Info.                !
 --------------------------------------------------------------------------------
 ! R1    R(1,2)                  1.0392         estimate D2E/DX2                !
 ! R2    R(1,3)                  1.0392         estimate D2E/DX2                !
 ! A1    A(2,1,3)              109.4712         estimate D2E/DX2                !
 --------------------------------------------------------------------------------
 Trust Radius=3.00D-01 FncErr=1.00D-07 GrdErr=1.00D-07 EigMax=2.50D+02 EigMin=1.00D-04
 Number of steps in this run=     20 maximum allowed number of steps=    100.
 GradGradGradGradGradGradGradGradGradGradGradGradGradGradGradGradGradGrad

 Leave Link  103 at Wed Sep 14 13:03:12 2022, MaxMem=   536870912 cpu:               0.1 elap:               0.0
 (Enter /net/software/testing/software/gaussian/g16.C.01/g16/l202.exe)
                          Input orientation:                          
 ---------------------------------------------------------------------
 Center     Atomic      Atomic             Coordinates (Angstroms)
 Number     Number       Type             X           Y           Z
 ---------------------------------------------------------------------
      1          8           0        0.000000    0.000000    0.000000
      2          1           0        0.600000    0.600000    0.600000
      3          1           0       -0.600000   -0.600000    0.600000
 ---------------------------------------------------------------------
                    Distance matrix (angstroms):
                    1          2          3
     1  O    0.000000
     2  H    1.039230   0.000000
     3  H    1.039230   1.697056   0.000000
 Stoichiometry    H2O
 Framework group  C2V[C2(O),SGV(H2)]
 Deg. of freedom     2
 Full point group                 C2V     NOp   4
 Largest Abelian subgroup         C2V     NOp   4
 Largest concise Abelian subgroup C2      NOp   2
                         Standard orientation:                         
 ---------------------------------------------------------------------
 Center     Atomic      Atomic             Coordinates (Angstroms)
 Number     Number       Type             X           Y           Z
 ---------------------------------------------------------------------
      1          8           0       -0.000000    0.000000    0.120000
      2          1           0       -0.000000    0.848528   -0.480000
      3          1           0       -0.000000   -0.848528   -0.480000
 ---------------------------------------------------------------------
 Rotational constants (GHZ):         784.2327297         348.2327114         241.1512793
 Leave Link  202 at Wed Sep 14 13:03:12 2022, MaxMem=   536870912 cpu:               0.1 elap:               0.0
 (Enter /net/software/testing/software/gaussian/g16.C.01/g16/l301.exe)
 Standard basis: def2SVP (5D, 7F)
 Ernie: Thresh=  0.10000D-02 Tol=  0.10000D-05 Strict=F.
 AO basis set in the form of general basis input (Overlap normalization):
      1 0
 S   5 1.00       0.000000000000
      0.2266176779D+04 -0.5389350392D-02
      0.3408701019D+03 -0.4023472139D-01
      0.7736313517D+02 -0.1800818421D+00
      0.2147964494D+02 -0.4682885766D+00
      0.6658943312D+01 -0.4469261716D+00
 S   1 1.00       0.000000000000
      0.8097597567D+00  0.1000000000D+01
 S   1 1.00       0.000000000000
      0.2553077223D+00  0.1000000000D+01
 P   3 1.00       0.000000000000
      0.1772150432D+02  0.6263024876D-01
      0.3863550544D+01  0.3333113848D+00
      0.1048092088D+01  0.7414863831D+00
 P   1 1.00       0.000000000000
      0.2764154441D+00  0.1000000000D+01
 D   1 1.00       0.000000000000
      0.1200000000D+01  0.1000000000D+01
 ****
      2 0
 S   3 1.00       0.000000000000
      0.1301070100D+02  0.3348548481D-01
      0.1962257200D+01  0.2347218709D+00
      0.4445379600D+00  0.8137702853D+00
 S   1 1.00       0.000000000000
      0.1219496200D+00  0.1000000000D+01
 P   1 1.00       0.000000000000
      0.8000000000D+00  0.1000000000D+01
 ****
      3 0
 S   3 1.00       0.000000000000
      0.1301070100D+02  0.3348548481D-01
      0.1962257200D+01  0.2347218709D+00
      0.4445379600D+00  0.8137702853D+00
 S   1 1.00       0.000000000000
      0.1219496200D+00  0.1000000000D+01
 P   1 1.00       0.000000000000
      0.8000000000D+00  0.1000000000D+01
 ****

 There are    12 symmetry adapted cartesian basis functions of A1  symmetry.
 There are     2 symmetry adapted cartesian basis functions of A2  symmetry.
 There are     4 symmetry adapted cartesian basis functions of B1  symmetry.
 There are     7 symmetry adapted cartesian basis functions of B2  symmetry.
 There are    11 symmetry adapted basis functions of A1  symmetry.
 There are     2 symmetry adapted basis functions of A2  symmetry.
 There are     4 symmetry adapted basis functions of B1  symmetry.
 There are     7 symmetry adapted basis functions of B2  symmetry.
    24 basis functions,    39 primitive gaussians,    25 cartesian basis functions
     5 alpha electrons        5 beta electrons
       nuclear repulsion energy         8.4590367999 Hartrees.
 IExCor=    0 DFT=F Ex=HF Corr=None ExCW=0 ScaHFX=  1.000000
 ScaDFX=  1.000000  1.000000  1.000000  1.000000 ScalE2=  1.000000  1.000000
 IRadAn=      5 IRanWt=     -1 IRanGd=            0 ICorTp=0 IEmpDi=  4
 NAtoms=    3 NActive=    3 NUniq=    2 SFac= 2.25D+00 NAtFMM=   60 NAOKFM=F Big=F
 Integral buffers will be    131072 words long.
 Raffenetti 1 integral format.
 Two-electron integral symmetry is turned on.
 Leave Link  301 at Wed Sep 14 13:03:12 2022, MaxMem=   536870912 cpu:               0.5 elap:               0.1
 (Enter /net/software/testing/software/gaussian/g16.C.01/g16/l302.exe)
 NPDir=0 NMtPBC=     1 NCelOv=     1 NCel=       1 NClECP=     1 NCelD=      1
         NCelK=      1 NCelE2=     1 NClLst=     1 CellRange=     0.0.
 One-electron integrals computed using PRISM.
 One-electron integral symmetry used in STVInt
   4 Symmetry operations used in ECPInt.
 ECPInt:  NShTT=      78 NPrTT=     272 LenC2=      79 LenP2D=     269.
 LDataN:  DoStor=T MaxTD1= 4 Len=   56
 NBasis=    24 RedAO= T EigKep=  4.56D-02  NBF=    11     2     4     7
 NBsUse=    24 1.00D-06 EigRej= -1.00D+00 NBFU=    11     2     4     7
 Leave Link  302 at Wed Sep 14 13:03:13 2022, MaxMem=   536870912 cpu:               0.6 elap:               0.1
 (Enter /net/software/testing/software/gaussian/g16.C.01/g16/l303.exe)
 DipDrv:  MaxL=1.
 Leave Link  303 at Wed Sep 14 13:03:13 2022, MaxMem=   536870912 cpu:               0.2 elap:               0.0
 (Enter /net/software/testing/software/gaussian/g16.C.01/g16/l401.exe)
 ExpMin= 1.22D-01 ExpMax= 2.27D+03 ExpMxC= 3.41D+02 IAcc=3 IRadAn=         5 AccDes= 0.00D+00
 Harris functional with IExCor=  205 and IRadAn=       5 diagonalized for initial guess.
 HarFok:  IExCor=  205 AccDes= 0.00D+00 IRadAn=         5 IDoV= 1 UseB2=F ITyADJ=14
 ICtDFT=  3500011 ScaDFX=  1.000000  1.000000  1.000000  1.000000
 FoFCou: FMM=F IPFlag=           0 FMFlag=      100000 FMFlg1=           0
         NFxFlg=           0 DoJE=T BraDBF=F KetDBF=T FulRan=T
         wScrn=  0.000000 ICntrl=       500 IOpCl=  0 I1Cent=   200000004 NGrid=           0
         NMat0=    1 NMatS0=      1 NMatT0=    0 NMatD0=    1 NMtDS0=    0 NMtDT0=    0
 Petite list used in FoFCou.
 Harris En= -76.0400832012672    
 JPrj=0 DoOrth=F DoCkMO=F.
 Initial guess orbital symmetries:
       Occupied  (A1) (A1) (B2) (A1) (B1)
       Virtual   (A1) (B2) (B2) (A1) (A1) (B1) (B2) (A1) (A2) (A1)
                 (B1) (B2) (B2) (A1) (B1) (A2) (A1) (A1) (B2)
 The electronic state of the initial guess is 1-A1.
 Leave Link  401 at Wed Sep 14 13:03:13 2022, MaxMem=   536870912 cpu:               0.8 elap:               0.1
 (Enter /net/software/testing/software/gaussian/g16.C.01/g16/l502.exe)
 Keep R1 ints in memory in symmetry-blocked form, NReq=1695231.
 FoFCou: FMM=F IPFlag=           0 FMFlag=           0 FMFlg1=           0
         NFxFlg=           0 DoJE=F BraDBF=F KetDBF=F FulRan=T
         wScrn=  0.000000 ICntrl=       600 IOpCl=  0 I1Cent=           0 NGrid=           0
         NMat0=    1 NMatS0=    300 NMatT0=    0 NMatD0=    1 NMtDS0=    0 NMtDT0=    0
 Petite list used in FoFCou.
 Closed shell SCF:
 Using DIIS extrapolation, IDIIS=  1040.
 NGot=   536870912 LenX=   536855066 LenY=   536854000
 Requested convergence on RMS density matrix=1.00D-08 within 128 cycles.
 Requested convergence on MAX density matrix=1.00D-06.
 Requested convergence on             energy=1.00D-06.
 No special actions if energy rises.

 Cycle   1  Pass 1  IDiag  1:
 E= -75.8670992360722    
 DIIS: error= 5.89D-02 at cycle   1 NSaved=   1.
 NSaved= 1 IEnMin= 1 EnMin= -75.8670992360722     IErMin= 1 ErrMin= 5.89D-02
 ErrMax= 5.89D-02  0.00D+00 EMaxC= 1.00D-01 BMatC= 1.11D-01 BMatP= 1.11D-01
 IDIUse=3 WtCom= 4.11D-01 WtEn= 5.89D-01
 Coeff-Com:  0.100D+01
 Coeff-En:   0.100D+01
 Coeff:      0.100D+01
 Gap=     0.535 Goal=   None    Shift=    0.000
 GapD=    0.535 DampG=2.000 DampE=0.500 DampFc=1.0000 IDamp=-1.
 RMSDP=1.20D-02 MaxDP=1.15D-01              OVMax= 1.31D-01

 Cycle   2  Pass 1  IDiag  1:
 E= -75.9159749297105     Delta-E=       -0.048875693638 Rises=F Damp=F
 DIIS: error= 3.44D-02 at cycle   2 NSaved=   2.
 NSaved= 2 IEnMin= 2 EnMin= -75.9159749297105     IErMin= 2 ErrMin= 3.44D-02
 ErrMax= 3.44D-02  0.00D+00 EMaxC= 1.00D-01 BMatC= 3.97D-02 BMatP= 1.11D-01
 IDIUse=3 WtCom= 6.56D-01 WtEn= 3.44D-01
 Coeff-Com:  0.363D+00 0.637D+00
 Coeff-En:   0.150D+00 0.850D+00
 Coeff:      0.289D+00 0.711D+00
 Gap=     0.664 Goal=   None    Shift=    0.000
 RMSDP=5.87D-03 MaxDP=5.43D-02 DE=-4.89D-02 OVMax= 4.81D-02

 Cycle   3  Pass 1  IDiag  1:
 E= -75.9431830571349     Delta-E=       -0.027208127424 Rises=F Damp=F
 DIIS: error= 6.21D-03 at cycle   3 NSaved=   3.
 NSaved= 3 IEnMin= 3 EnMin= -75.9431830571349     IErMin= 3 ErrMin= 6.21D-03
 ErrMax= 6.21D-03  0.00D+00 EMaxC= 1.00D-01 BMatC= 9.69D-04 BMatP= 3.97D-02
 IDIUse=3 WtCom= 9.38D-01 WtEn= 6.21D-02
 Coeff-Com: -0.332D-01 0.916D-01 0.942D+00
 Coeff-En:   0.000D+00 0.000D+00 0.100D+01
 Coeff:     -0.311D-01 0.859D-01 0.945D+00
 Gap=     0.650 Goal=   None    Shift=    0.000
 RMSDP=7.96D-04 MaxDP=8.64D-03 DE=-2.72D-02 OVMax= 1.05D-02

 Cycle   4  Pass 1  IDiag  1:
 E= -75.9440011204022     Delta-E=       -0.000818063267 Rises=F Damp=F
 DIIS: error= 8.86D-04 at cycle   4 NSaved=   4.
 NSaved= 4 IEnMin= 4 EnMin= -75.9440011204022     IErMin= 4 ErrMin= 8.86D-04
 ErrMax= 8.86D-04  0.00D+00 EMaxC= 1.00D-01 BMatC= 1.38D-05 BMatP= 9.69D-04
 IDIUse=3 WtCom= 9.91D-01 WtEn= 8.86D-03
 Coeff-Com:  0.595D-02-0.501D-01-0.295D+00 0.134D+01
 Coeff-En:   0.000D+00 0.000D+00 0.000D+00 0.100D+01
 Coeff:      0.590D-02-0.497D-01-0.292D+00 0.134D+01
 Gap=     0.652 Goal=   None    Shift=    0.000
 RMSDP=1.95D-04 MaxDP=2.00D-03 DE=-8.18D-04 OVMax= 2.06D-03

 Cycle   5  Pass 1  IDiag  1:
 E= -75.9440228624074     Delta-E=       -0.000021742005 Rises=F Damp=F
 DIIS: error= 1.36D-04 at cycle   5 NSaved=   5.
 NSaved= 5 IEnMin= 5 EnMin= -75.9440228624074     IErMin= 5 ErrMin= 1.36D-04
 ErrMax= 1.36D-04  0.00D+00 EMaxC= 1.00D-01 BMatC= 3.01D-07 BMatP= 1.38D-05
 IDIUse=3 WtCom= 9.99D-01 WtEn= 1.36D-03
 Coeff-Com:  0.576D-03 0.100D-02-0.852D-03-0.151D+00 0.115D+01
 Coeff-En:   0.000D+00 0.000D+00 0.000D+00 0.000D+00 0.100D+01
 Coeff:      0.575D-03 0.100D-02-0.851D-03-0.151D+00 0.115D+01
 Gap=     0.653 Goal=   None    Shift=    0.000
 RMSDP=3.96D-05 MaxDP=3.73D-04 DE=-2.17D-05 OVMax= 5.03D-04

 Cycle   6  Pass 1  IDiag  1:
 E= -75.9440235727838     Delta-E=       -0.000000710376 Rises=F Damp=F
 DIIS: error= 2.71D-05 at cycle   6 NSaved=   6.
 NSaved= 6 IEnMin= 6 EnMin= -75.9440235727838     IErMin= 6 ErrMin= 2.71D-05
 ErrMax= 2.71D-05  0.00D+00 EMaxC= 1.00D-01 BMatC= 1.44D-08 BMatP= 3.01D-07
 IDIUse=1 WtCom= 1.00D+00 WtEn= 0.00D+00
 Coeff-Com: -0.334D-03 0.143D-02 0.113D-01-0.153D-01-0.304D+00 0.131D+01
 Coeff:     -0.334D-03 0.143D-02 0.113D-01-0.153D-01-0.304D+00 0.131D+01
 Gap=     0.653 Goal=   None    Shift=    0.000
 RMSDP=1.15D-05 MaxDP=8.60D-05 DE=-7.10D-07 OVMax= 1.49D-04

 Cycle   7  Pass 1  IDiag  1:
 E= -75.9440236123012     Delta-E=       -0.000000039517 Rises=F Damp=F
 DIIS: error= 5.05D-06 at cycle   7 NSaved=   7.
 NSaved= 7 IEnMin= 7 EnMin= -75.9440236123012     IErMin= 7 ErrMin= 5.05D-06
 ErrMax= 5.05D-06  0.00D+00 EMaxC= 1.00D-01 BMatC= 6.33D-10 BMatP= 1.44D-08
 IDIUse=1 WtCom= 1.00D+00 WtEn= 0.00D+00
 Coeff-Com:  0.150D-03-0.785D-03-0.590D-02 0.137D-01 0.125D+00-0.684D+00
 Coeff-Com:  0.155D+01
 Coeff:      0.150D-03-0.785D-03-0.590D-02 0.137D-01 0.125D+00-0.684D+00
 Coeff:      0.155D+01
 Gap=     0.653 Goal=   None    Shift=    0.000
 RMSDP=2.24D-06 MaxDP=2.31D-05 DE=-3.95D-08 OVMax= 3.23D-05

 Cycle   8  Pass 1  IDiag  1:
 E= -75.9440236142972     Delta-E=       -0.000000001996 Rises=F Damp=F
 DIIS: error= 9.11D-07 at cycle   8 NSaved=   8.
 NSaved= 8 IEnMin= 8 EnMin= -75.9440236142972     IErMin= 8 ErrMin= 9.11D-07
 ErrMax= 9.11D-07  0.00D+00 EMaxC= 1.00D-01 BMatC= 1.67D-11 BMatP= 6.33D-10
 IDIUse=1 WtCom= 1.00D+00 WtEn= 0.00D+00
 Coeff-Com: -0.351D-04 0.208D-03 0.154D-02-0.470D-02-0.242D-01 0.162D+00
 Coeff-Com: -0.496D+00 0.136D+01
 Coeff:     -0.351D-04 0.208D-03 0.154D-02-0.470D-02-0.242D-01 0.162D+00
 Coeff:     -0.496D+00 0.136D+01
 Gap=     0.653 Goal=   None    Shift=    0.000
 RMSDP=3.41D-07 MaxDP=2.53D-06 DE=-2.00D-09 OVMax= 5.06D-06

 Cycle   9  Pass 1  IDiag  1:
 E= -75.9440236143442     Delta-E=       -0.000000000047 Rises=F Damp=F
 DIIS: error= 7.70D-08 at cycle   9 NSaved=   9.
 NSaved= 9 IEnMin= 9 EnMin= -75.9440236143442     IErMin= 9 ErrMin= 7.70D-08
 ErrMax= 7.70D-08  0.00D+00 EMaxC= 1.00D-01 BMatC= 1.67D-13 BMatP= 1.67D-11
 IDIUse=1 WtCom= 1.00D+00 WtEn= 0.00D+00
 Coeff-Com:  0.478D-05-0.303D-04-0.225D-03 0.777D-03 0.307D-02-0.238D-01
 Coeff-Com:  0.844D-01-0.322D+00 0.126D+01
 Coeff:      0.478D-05-0.303D-04-0.225D-03 0.777D-03 0.307D-02-0.238D-01
 Coeff:      0.844D-01-0.322D+00 0.126D+01
 Gap=     0.653 Goal=   None    Shift=    0.000
 RMSDP=4.05D-08 MaxDP=2.39D-07 DE=-4.69D-11 OVMax= 5.61D-07

 Cycle  10  Pass 1  IDiag  1:
 E= -75.9440236143445     Delta-E=       -0.000000000000 Rises=F Damp=F
 DIIS: error= 1.40D-08 at cycle  10 NSaved=  10.
 NSaved=10 IEnMin=10 EnMin= -75.9440236143445     IErMin=10 ErrMin= 1.40D-08
 ErrMax= 1.40D-08  0.00D+00 EMaxC= 1.00D-01 BMatC= 3.57D-15 BMatP= 1.67D-13
 IDIUse=1 WtCom= 1.00D+00 WtEn= 0.00D+00
 Coeff-Com: -0.570D-06 0.400D-05 0.305D-04-0.126D-03-0.305D-03 0.316D-02
 Coeff-Com: -0.131D-01 0.563D-01-0.286D+00 0.124D+01
 Coeff:     -0.570D-06 0.400D-05 0.305D-04-0.126D-03-0.305D-03 0.316D-02
 Coeff:     -0.131D-01 0.563D-01-0.286D+00 0.124D+01
 Gap=     0.653 Goal=   None    Shift=    0.000
 RMSDP=5.02D-09 MaxDP=3.46D-08 DE=-3.98D-13 OVMax= 6.15D-08

 SCF Done:  E(RHF) =  -75.9440236143     A.U. after   10 cycles
            NFock= 10  Conv=0.50D-08     -V/T= 2.0057
 KE= 7.551127751196D+01 PE=-1.972455546234D+02 EE= 3.733121669725D+01
 Leave Link  502 at Wed Sep 14 13:03:13 2022, MaxMem=   536870912 cpu:               0.7 elap:               0.1
 (Enter /net/software/testing/software/gaussian/g16.C.01/g16/l601.exe)
 Copying SCF densities to generalized density rwf, IOpCl= 0 IROHF=0.

 **********************************************************************

            Population analysis using the SCF Density.

 **********************************************************************

 Orbital symmetries:
       Occupied  (A1) (A1) (B2) (A1) (B1)
       Virtual   (A1) (B2) (B2) (A1) (A1) (B1) (B2) (A1) (A2) (A1)
                 (B1) (B2) (B2) (A1) (B1) (A2) (A1) (A1) (B2)
 The electronic state is 1-A1.
 Alpha  occ. eigenvalues --  -20.55522  -1.27700  -0.66944  -0.54366  -0.49060
 Alpha virt. eigenvalues --    0.16245   0.24148   0.75740   0.77299   1.18792
 Alpha virt. eigenvalues --    1.20085   1.27326   1.33472   1.57005   1.74160
 Alpha virt. eigenvalues --    1.81769   1.94803   2.38495   2.43082   3.23192
 Alpha virt. eigenvalues --    3.32020   3.41903   3.84825   4.11393
     Molecular Orbital Coefficients:
                           1         2         3         4         5
                        (A1)--O   (A1)--O   (B2)--O   (A1)--O   (B1)--O
     Eigenvalues --   -20.55522  -1.27700  -0.66944  -0.54366  -0.49060
   1 1   O  1S          0.99052   0.28211   0.00000   0.08782   0.00000
   2        2S         -0.03222   0.56419   0.00000   0.18242   0.00000
   3        3S          0.01117   0.33908   0.00000   0.29068   0.00000
   4        4PX         0.00000   0.00000   0.00000   0.00000   0.63471
   5        4PY         0.00000   0.00000   0.47859   0.00000   0.00000
   6        4PZ         0.00219  -0.06585   0.00000   0.54608   0.00000
   7        5PX         0.00000   0.00000   0.00000   0.00000   0.50056
   8        5PY         0.00000   0.00000   0.24251   0.00000   0.00000
   9        5PZ        -0.00074  -0.00694   0.00000   0.38383   0.00000
  10        6D 0        0.00003   0.00102   0.00000  -0.01656   0.00000
  11        6D+1        0.00000   0.00000   0.00000   0.00000  -0.01683
  12        6D-1        0.00000   0.00000  -0.02325   0.00000   0.00000
  13        6D+2        0.00054  -0.00384   0.00000   0.00440   0.00000
  14        6D-2        0.00000   0.00000   0.00000   0.00000   0.00000
  15 2   H  1S          0.00072   0.16213   0.31332  -0.19528   0.00000
  16        2S         -0.00176   0.00742   0.09732  -0.06822   0.00000
  17        3PX         0.00000   0.00000   0.00000   0.00000   0.02563
  18        3PY        -0.00145  -0.02785  -0.02424   0.02756   0.00000
  19        3PZ         0.00109   0.01413   0.02766   0.00618   0.00000
  20 3   H  1S          0.00072   0.16213  -0.31332  -0.19528   0.00000
  21        2S         -0.00176   0.00742  -0.09732  -0.06822   0.00000
  22        3PX         0.00000   0.00000   0.00000   0.00000   0.02563
  23        3PY         0.00145   0.02785  -0.02424  -0.02756   0.00000
  24        3PZ         0.00109   0.01413  -0.02766   0.00618   0.00000
                           6         7         8         9        10
                        (A1)--V   (B2)--V   (B2)--V   (A1)--V   (A1)--V
     Eigenvalues --     0.16245   0.24148   0.75740   0.77299   1.18792
   1 1   O  1S          0.08983   0.00000   0.00000  -0.10184  -0.12259
   2        2S          0.09772   0.00000   0.00000  -0.37081  -0.53730
   3        3S          1.01227   0.00000   0.00000   0.36365   0.16136
   4        4PX         0.00000   0.00000   0.00000   0.00000   0.00000
   5        4PY         0.00000  -0.30569  -0.30447   0.00000   0.00000
   6        4PZ        -0.21164   0.00000   0.00000   0.28817  -0.82733
   7        5PX         0.00000   0.00000   0.00000   0.00000   0.00000
   8        5PY         0.00000  -0.66043  -0.37038   0.00000   0.00000
   9        5PZ        -0.38059   0.00000   0.00000   0.10987   1.06789
  10        6D 0        0.00673   0.00000   0.00000  -0.01139  -0.01066
  11        6D+1        0.00000   0.00000   0.00000   0.00000   0.00000
  12        6D-1        0.00000   0.01337  -0.09794   0.00000   0.00000
  13        6D+2       -0.00579   0.00000   0.00000  -0.09082  -0.00589
  14        6D-2        0.00000   0.00000   0.00000   0.00000   0.00000
  15 2   H  1S         -0.09152   0.04313   0.95586   0.88770   0.24944
  16        2S         -0.85615   1.26553  -0.76060  -0.61921   0.03024
  17        3PX         0.00000   0.00000   0.00000   0.00000   0.00000
  18        3PY         0.01041  -0.01079   0.04126   0.18055  -0.05587
  19        3PZ        -0.01011   0.00543  -0.11426  -0.02319   0.16656
  20 3   H  1S         -0.09152  -0.04313  -0.95586   0.88770   0.24944
  21        2S         -0.85615  -1.26553   0.76060  -0.61921   0.03024
  22        3PX         0.00000   0.00000   0.00000   0.00000   0.00000
  23        3PY        -0.01041  -0.01079   0.04126  -0.18055   0.05587
  24        3PZ        -0.01011  -0.00543   0.11426  -0.02319   0.16656
     Density Matrix:
                           1         2         3         4         5
   1 1   O  1S          2.13687
   2        2S          0.28654   0.70525
   3        3S          0.26451   0.48795   0.39920
   4        4PX         0.00000   0.00000   0.00000   0.80571
   5        4PY         0.00000   0.00000   0.00000  -0.00000   0.45810
   6        4PZ         0.06309   0.12479   0.27286   0.00000   0.00000
   7        5PX         0.00000   0.00000   0.00000   0.63542  -0.00000
   8        5PY         0.00000   0.00000   0.00000  -0.00000   0.23212
   9        5PZ         0.06204   0.13226   0.21842   0.00000   0.00000
  10        6D 0       -0.00227  -0.00489  -0.00893  -0.00000  -0.00000
  11        6D+1       -0.00000  -0.00000  -0.00000  -0.02136   0.00000
  12        6D-1       -0.00000  -0.00000  -0.00000   0.00000  -0.02225
  13        6D+2       -0.00033  -0.00277  -0.00004   0.00000   0.00000
  14        6D-2       -0.00000  -0.00000  -0.00000  -0.00000   0.00000
  15 2   H  1S          0.05861   0.11165  -0.00356   0.00000   0.29991
  16        2S         -0.01128  -0.01641  -0.03467   0.00000   0.09316
  17        3PX         0.00000   0.00000   0.00000   0.03254  -0.00000
  18        3PY        -0.01375  -0.02127  -0.00290  -0.00000  -0.02320
  19        3PZ         0.01123   0.01813   0.01320   0.00000   0.02648
  20 3   H  1S          0.05861   0.11165  -0.00356   0.00000  -0.29991
  21        2S         -0.01128  -0.01641  -0.03467   0.00000  -0.09316
  22        3PX         0.00000   0.00000   0.00000   0.03254  -0.00000
  23        3PY         0.01375   0.02127   0.00290  -0.00000  -0.02320
  24        3PZ         0.01123   0.01813   0.01320   0.00000  -0.02648
                           6         7         8         9        10
   6        4PZ         0.60510
   7        5PX         0.00000   0.50113
   8        5PY         0.00000  -0.00000   0.11762
   9        5PZ         0.42011   0.00000   0.00000   0.29474
  10        6D 0       -0.01822  -0.00000  -0.00000  -0.01273   0.00055
  11        6D+1       -0.00000  -0.01684   0.00000  -0.00000   0.00000
  12        6D-1       -0.00000   0.00000  -0.01127  -0.00000   0.00000
  13        6D+2        0.00531   0.00000   0.00000   0.00343  -0.00015
  14        6D-2       -0.00000  -0.00000   0.00000  -0.00000   0.00000
  15 2   H  1S         -0.23463   0.00000   0.15197  -0.15216   0.00680
  16        2S         -0.07549   0.00000   0.04720  -0.05247   0.00227
  17        3PX         0.00000   0.02566  -0.00000   0.00000  -0.00000
  18        3PY         0.03376  -0.00000  -0.01176   0.02154  -0.00097
  19        3PZ         0.00490   0.00000   0.01342   0.00455  -0.00018
  20 3   H  1S         -0.23463   0.00000  -0.15197  -0.15216   0.00680
  21        2S         -0.07549   0.00000  -0.04720  -0.05247   0.00227
  22        3PX         0.00000   0.02566  -0.00000   0.00000  -0.00000
  23        3PY        -0.03376  -0.00000  -0.01176  -0.02154   0.00097
  24        3PZ         0.00490   0.00000  -0.01342   0.00455  -0.00018
                          11        12        13        14        15
  11        6D+1        0.00057
  12        6D-1       -0.00000   0.00108
  13        6D+2        0.00000  -0.00000   0.00007
  14        6D-2        0.00000   0.00000  -0.00000   0.00000
  15 2   H  1S          0.00000  -0.01457  -0.00296   0.00000   0.32518
  16        2S          0.00000  -0.00452  -0.00066   0.00000   0.09003
  17        3PX        -0.00086  -0.00000  -0.00000  -0.00000   0.00000
  18        3PY         0.00000   0.00113   0.00046  -0.00000  -0.03499
  19        3PZ        -0.00000  -0.00129  -0.00005  -0.00000   0.01951
  20 3   H  1S         -0.00000   0.01457  -0.00296   0.00000  -0.06750
  21        2S         -0.00000   0.00452  -0.00066   0.00000  -0.03194
  22        3PX        -0.00086   0.00000  -0.00000  -0.00000   0.00000
  23        3PY         0.00000   0.00113  -0.00046   0.00000   0.00461
  24        3PZ        -0.00000   0.00129  -0.00005  -0.00000  -0.01517
                          16        17        18        19        20
  16        2S          0.02837
  17        3PX         0.00000   0.00131
  18        3PY        -0.00889  -0.00000   0.00425
  19        3PZ         0.00475   0.00000  -0.00179   0.00201
  20 3   H  1S         -0.03194   0.00000  -0.00461  -0.01517   0.32518
  21        2S         -0.00952   0.00000   0.00055  -0.00602   0.09003
  22        3PX         0.00000   0.00131  -0.00000   0.00000   0.00000
  23        3PY        -0.00055   0.00000  -0.00190  -0.00089   0.03499
  24        3PZ        -0.00602   0.00000   0.00089  -0.00105   0.01951
                          21        22        23        24
  21        2S          0.02837
  22        3PX         0.00000   0.00131
  23        3PY         0.00889  -0.00000   0.00425
  24        3PZ         0.00475   0.00000   0.00179   0.00201
    Full Mulliken population analysis:
                           1         2         3         4         5
   1 1   O  1S          2.13687
   2        2S         -0.09857   0.70525
   3        3S         -0.04176   0.38496   0.39920
   4        4PX         0.00000   0.00000   0.00000   0.80571
   5        4PY         0.00000   0.00000   0.00000   0.00000   0.45810
   6        4PZ         0.00000   0.00000   0.00000   0.00000   0.00000
   7        5PX         0.00000   0.00000   0.00000   0.31907   0.00000
   8        5PY         0.00000   0.00000   0.00000   0.00000   0.11656
   9        5PZ         0.00000   0.00000   0.00000   0.00000   0.00000
  10        6D 0        0.00000  -0.00000   0.00000   0.00000   0.00000
  11        6D+1        0.00000  -0.00000  -0.00000   0.00000   0.00000
  12        6D-1        0.00000  -0.00000  -0.00000   0.00000   0.00000
  13        6D+2        0.00000  -0.00000  -0.00000   0.00000   0.00000
  14        6D-2       -0.00000   0.00000   0.00000   0.00000   0.00000
  15 2   H  1S         -0.00218   0.03066  -0.00165   0.00000   0.05996
  16        2S          0.00066  -0.00604  -0.02282   0.00000   0.00820
  17        3PX         0.00000   0.00000   0.00000   0.00453  -0.00000
  18        3PY        -0.00073   0.00650   0.00076   0.00000   0.00463
  19        3PZ        -0.00042   0.00392   0.00243   0.00000   0.00634
  20 3   H  1S         -0.00218   0.03066  -0.00165   0.00000   0.05996
  21        2S          0.00066  -0.00604  -0.02282   0.00000   0.00820
  22        3PX         0.00000   0.00000   0.00000   0.00453   0.00000
  23        3PY        -0.00073   0.00650   0.00076   0.00000   0.00463
  24        3PZ        -0.00042   0.00392   0.00243   0.00000   0.00634
                           6         7         8         9        10
   6        4PZ         0.60510
   7        5PX         0.00000   0.50113
   8        5PY         0.00000   0.00000   0.11762
   9        5PZ         0.21096   0.00000   0.00000   0.29474
  10        6D 0        0.00000   0.00000   0.00000   0.00000   0.00055
  11        6D+1        0.00000   0.00000   0.00000   0.00000   0.00000
  12        6D-1        0.00000   0.00000   0.00000   0.00000   0.00000
  13        6D+2        0.00000   0.00000   0.00000   0.00000   0.00000
  14        6D-2        0.00000   0.00000   0.00000   0.00000   0.00000
  15 2   H  1S          0.03317   0.00000   0.07539   0.05338   0.00000
  16        2S          0.00470   0.00000   0.01556   0.01223   0.00000
  17        3PX         0.00000   0.00829   0.00000   0.00000  -0.00000
  18        3PY         0.00809   0.00000   0.00021   0.00520   0.00012
  19        3PZ        -0.00015   0.00000   0.00324   0.00069   0.00003
  20 3   H  1S          0.03317   0.00000   0.07539   0.05338   0.00000
  21        2S          0.00470   0.00000   0.01556   0.01223   0.00000
  22        3PX         0.00000   0.00829   0.00000   0.00000   0.00000
  23        3PY         0.00809   0.00000   0.00021   0.00520   0.00012
  24        3PZ        -0.00015   0.00000   0.00324   0.00069   0.00003
                          11        12        13        14        15
  11        6D+1        0.00057
  12        6D-1        0.00000   0.00108
  13        6D+2        0.00000   0.00000   0.00007
  14        6D-2        0.00000   0.00000   0.00000   0.00000
  15 2   H  1S          0.00000   0.00245   0.00035  -0.00000   0.32518
  16        2S          0.00000   0.00010   0.00001   0.00000   0.06165
  17        3PX         0.00013   0.00000  -0.00000  -0.00000   0.00000
  18        3PY         0.00000   0.00025   0.00002  -0.00000   0.00000
  19        3PZ         0.00000   0.00006   0.00001   0.00000   0.00000
  20 3   H  1S         -0.00000   0.00245   0.00035  -0.00000  -0.00498
  21        2S         -0.00000   0.00010   0.00001  -0.00000  -0.00801
  22        3PX         0.00013   0.00000   0.00000   0.00000   0.00000
  23        3PY         0.00000   0.00025   0.00002   0.00000   0.00039
  24        3PZ         0.00000   0.00006   0.00001   0.00000  -0.00000
                          16        17        18        19        20
  16        2S          0.02837
  17        3PX         0.00000   0.00131
  18        3PY         0.00000   0.00000   0.00425
  19        3PZ         0.00000   0.00000   0.00000   0.00201
  20 3   H  1S         -0.00801   0.00000   0.00039   0.00000   0.32518
  21        2S         -0.00508   0.00000  -0.00008   0.00000   0.06165
  22        3PX         0.00000   0.00002   0.00000   0.00000   0.00000
  23        3PY        -0.00008   0.00000   0.00022   0.00000   0.00000
  24        3PZ        -0.00000   0.00000  -0.00000  -0.00002   0.00000
                          21        22        23        24
  21        2S          0.02837
  22        3PX         0.00000   0.00131
  23        3PY         0.00000   0.00000   0.00425
  24        3PZ         0.00000   0.00000   0.00000   0.00201
     Gross orbital populations:
                           1
   1 1   O  1S          1.99120
   2        2S          1.06173
   3        3S          0.69985
   4        4PX         1.13384
   5        4PY         0.73293
   6        4PZ         0.90767
   7        5PX         0.83678
   8        5PY         0.42298
   9        5PZ         0.64870
  10        6D 0        0.00085
  11        6D+1        0.00082
  12        6D-1        0.00680
  13        6D+2        0.00086
  14        6D-2       -0.00000
  15 2   H  1S          0.62578
  16        2S          0.08945
  17        3PX         0.01428
  18        3PY         0.02984
  19        3PZ         0.01816
  20 3   H  1S          0.62578
  21        2S          0.08945
  22        3PX         0.01428
  23        3PY         0.02984
  24        3PZ         0.01816
          Condensed to atoms (all electrons):
               1          2          3
     1  O    7.808422   0.318289   0.318289
     2  H    0.318289   0.484432  -0.025220
     3  H    0.318289  -0.025220   0.484432
 Mulliken charges:
               1
     1  O   -0.444999
     2  H    0.222500
     3  H    0.222500
 Sum of Mulliken charges =  -0.00000
 Mulliken charges with hydrogens summed into heavy atoms:
               1
     1  O   -0.000000
 Electronic spatial extent (au):  <R**2>=             19.8664
 Charge=             -0.0000 electrons
 Dipole moment (field-independent basis, Debye):
    X=             -0.0000    Y=              0.0000    Z=             -2.1298  Tot=              2.1298
 Quadrupole moment (field-independent basis, Debye-Ang):
   XX=             -7.2278   YY=             -3.7126   ZZ=             -6.0973
   XY=              0.0000   XZ=              0.0000   YZ=             -0.0000
 Traceless Quadrupole moment (field-independent basis, Debye-Ang):
   XX=             -1.5486   YY=              1.9666   ZZ=             -0.4181
   XY=              0.0000   XZ=              0.0000   YZ=             -0.0000
 Octapole moment (field-independent basis, Debye-Ang**2):
  XXX=              0.0000  YYY=              0.0000  ZZZ=             -1.1411  XYY=             -0.0000
  XXY=             -0.0000  XXZ=             -0.2686  XZZ=              0.0000  YZZ=             -0.0000
  YYZ=             -1.5904  XYZ=             -0.0000
 Hexadecapole moment (field-independent basis, Debye-Ang**3):
 XXXX=             -5.0890 YYYY=             -5.9239 ZZZZ=             -6.3816 XXXY=             -0.0000
 XXXZ=             -0.0000 YYYX=              0.0000 YYYZ=             -0.0000 ZZZX=             -0.0000
 ZZZY=              0.0000 XXYY=             -2.2896 XXZZ=             -1.9713 YYZZ=             -1.6540
 XXYZ=              0.0000 YYXZ=              0.0000 ZZXY=             -0.0000
 N-N= 8.459036799874D+00 E-N=-1.972455547860D+02  KE= 7.551127751196D+01
 Symmetry A1   KE= 6.762932551845D+01
 Symmetry A2   KE= 2.068753659071D-32
 Symmetry B1   KE= 4.592745404349D+00
 Symmetry B2   KE= 3.289206589161D+00
 Orbital energies and kinetic energies (alpha):
                                 1                 2
   1         (A1)--O         -20.555223         28.850551
   2         (A1)--O          -1.277002          2.834732
   3         (B2)--O          -0.669436          1.644603
   4         (A1)--O          -0.543658          2.129379
   5         (B1)--O          -0.490602          2.296373
   6         (A1)--V           0.162451          0.808058
   7         (B2)--V           0.241478          0.848805
   8         (B2)--V           0.757400          1.928617
   9         (A1)--V           0.772987          2.203486
  10         (A1)--V           1.187920          3.515930
 Total kinetic energy from orbitals= 7.551127751196D+01
 No NMR shielding tensors so no spin-rotation constants.
 Leave Link  601 at Wed Sep 14 13:03:13 2022, MaxMem=   536870912 cpu:               0.6 elap:               0.1
 (Enter /net/software/testing/software/gaussian/g16.C.01/g16/l701.exe)
 ... and contract with generalized density number  0.
 Compute integral first derivatives.
   4 Symmetry operations used in ECPInt.
 ECPInt:  NShTT=      78 NPrTT=     272 LenC2=      79 LenP2D=     269.
 LDataN:  DoStor=T MaxTD1= 5 Len=  102
 Leave Link  701 at Wed Sep 14 13:03:13 2022, MaxMem=   536870912 cpu:               0.7 elap:               0.1
 (Enter /net/software/testing/software/gaussian/g16.C.01/g16/l702.exe)
 L702 exits ... SP integral derivatives will be done elsewhere.
 Leave Link  702 at Wed Sep 14 13:03:13 2022, MaxMem=   536870912 cpu:               0.2 elap:               0.0
 (Enter /net/software/testing/software/gaussian/g16.C.01/g16/l703.exe)
 Integral derivatives from FoFJK, PRISM(SPDF).
 Compute integral first derivatives, UseDBF=F ICtDFT=           0.
 Calling FoFJK, ICntrl=      2127 FMM=F ISym2X=1 I1Cent= 0 IOpClX= 0 NMat=1 NMatS=1 NMatT=0.
 FoFJK:  IHMeth= 1 ICntrl=    2127 DoSepK=F KAlg= 0 I1Cent=           0 FoldK=F
 IRaf=         0 NMat=       1 IRICut=       1 DoRegI=T DoRafI=F ISym2E= 1 IDoP0=0 IntGTp=1.
 FoFCou: FMM=F IPFlag=           0 FMFlag=      100000 FMFlg1=         800
         NFxFlg=           0 DoJE=F BraDBF=F KetDBF=F FulRan=T
         wScrn=  0.000000 ICntrl=      2127 IOpCl=  0 I1Cent=           0 NGrid=           0
         NMat0=    1 NMatS0=      1 NMatT0=    0 NMatD0=    1 NMtDS0=    0 NMtDT0=    0
 Petite list used in FoFCou.
 Leave Link  703 at Wed Sep 14 13:03:13 2022, MaxMem=   536870912 cpu:               0.8 elap:               0.1
 (Enter /net/software/testing/software/gaussian/g16.C.01/g16/l716.exe)
 Dipole        =-9.73816473D-17 0.00000000D+00-8.37908205D-01
 ***** Axes restored to original set *****
 -------------------------------------------------------------------
 Center     Atomic                   Forces (Hartrees/Bohr)
 Number     Number              X              Y              Z
 -------------------------------------------------------------------
      1        8           0.000000000    0.000000000    0.079312999
      2        1          -0.052304413   -0.052304413   -0.039656499
      3        1           0.052304413    0.052304413   -0.039656499
 -------------------------------------------------------------------
 Cartesian Forces:  Max     0.079312999 RMS     0.047584818
 Leave Link  716 at Wed Sep 14 13:03:13 2022, MaxMem=   536870912 cpu:               0.2 elap:               0.0
 (Enter /net/software/testing/software/gaussian/g16.C.01/g16/l103.exe)

 GradGradGradGradGradGradGradGradGradGradGradGradGradGradGradGradGradGrad
 Berny optimization.
 FormGI is forming the generalized inverse of G from B-inverse, IUseBI=4.
 Internal  Forces:  Max     0.083291625 RMS     0.069007967
 Search for a local minimum.
 Step number   1 out of a maximum of   20
 All quantities printed in internal units (Hartrees-Bohrs-Radians)
 RMS Force = .69008D-01 SwitMx=.10000D-02 MixMth= 1
 Mixed Optimization -- RFO/linear search
 Second derivative matrix not updated -- first step.
 The second derivative matrix:
                          R1        R2        A1
           R1           0.41406
           R2           0.00000   0.41406
           A1           0.00000   0.00000   0.16000
 ITU=  0
     Eigenvalues ---    0.16000   0.41406   0.41406
 RFO step:  Lambda=-3.31545787D-02 EMin= 1.60000000D-01
 Linear search not attempted -- first point.
 Iteration  1 RMS(Cart)=  0.17276110 RMS(Int)=  0.00671035
 Iteration  2 RMS(Cart)=  0.00520273 RMS(Int)=  0.00002340
 Iteration  3 RMS(Cart)=  0.00002428 RMS(Int)=  0.00000000
 Iteration  4 RMS(Cart)=  0.00000000 RMS(Int)=  0.00000000
 ITry= 1 IFail=0 DXMaxC= 1.47D-01 DCOld= 1.00D+10 DXMaxT= 3.00D-01 DXLimC= 3.00D+00 Rises=F
 ClnCor:  largest displacement from symmetrization is 9.54D-15 for atom     3.
 Variable       Old X    -DE/DX   Delta X   Delta X   Delta X     New X
                                 (Linear)    (Quad)   (Total)
    R1        1.96386  -0.08329   0.00000  -0.18624  -0.18624   1.77762
    R2        1.96386  -0.08329   0.00000  -0.18624  -0.18624   1.77762
    A1        1.91063  -0.02028   0.00000  -0.10500  -0.10500   1.80564
         Item               Value     Threshold  Converged?
 Maximum Force            0.083292     0.000450     NO 
 RMS     Force            0.069008     0.000300     NO 
 Maximum Displacement     0.147023     0.001800     NO 
 RMS     Displacement     0.170470     0.001200     NO 
 Predicted change in Energy=-1.791007D-02
 Lowest energy point so far.  Saving SCF results.
 GradGradGradGradGradGradGradGradGradGradGradGradGradGradGradGradGradGrad

 Leave Link  103 at Wed Sep 14 13:03:13 2022, MaxMem=   536870912 cpu:               0.1 elap:               0.0
 (Enter /net/software/testing/software/gaussian/g16.C.01/g16/l202.exe)
                          Input orientation:                          
 ---------------------------------------------------------------------
 Center     Atomic      Atomic             Coordinates (Angstroms)
 Number     Number       Type             X           Y           Z
 ---------------------------------------------------------------------
      1          8           0       -0.000000   -0.000000    0.011564
      2          1           0        0.522199    0.522199    0.594218
      3          1           0       -0.522199   -0.522199    0.594218
 ---------------------------------------------------------------------
                    Distance matrix (angstroms):
                    1          2          3
     1  O    0.000000
     2  H    0.940674   0.000000
     3  H    0.940674   1.477001   0.000000
 Stoichiometry    H2O
 Framework group  C2V[C2(O),SGV(H2)]
 Deg. of freedom     2
 Full point group                 C2V     NOp   4
 RotChk:  IX=0 Diff= 1.10D-15
 Largest Abelian subgroup         C2V     NOp   4
 Largest concise Abelian subgroup C2      NOp   2
                         Standard orientation:                         
 ---------------------------------------------------------------------
 Center     Atomic      Atomic             Coordinates (Angstroms)
 Number     Number       Type             X           Y           Z
 ---------------------------------------------------------------------
      1          8           0        0.000000    0.000000    0.116531
      2          1           0       -0.000000    0.738500   -0.466123
      3          1           0       -0.000000   -0.738500   -0.466123
 ---------------------------------------------------------------------
 Rotational constants (GHZ):         831.6224170         459.7277449         296.0621446
 Leave Link  202 at Wed Sep 14 13:03:13 2022, MaxMem=   536870912 cpu:               0.1 elap:               0.0
 (Enter /net/software/testing/software/gaussian/g16.C.01/g16/l301.exe)
 Standard basis: def2SVP (5D, 7F)
 Ernie: Thresh=  0.10000D-02 Tol=  0.10000D-05 Strict=F.
 There are    12 symmetry adapted cartesian basis functions of A1  symmetry.
 There are     2 symmetry adapted cartesian basis functions of A2  symmetry.
 There are     4 symmetry adapted cartesian basis functions of B1  symmetry.
 There are     7 symmetry adapted cartesian basis functions of B2  symmetry.
 There are    11 symmetry adapted basis functions of A1  symmetry.
 There are     2 symmetry adapted basis functions of A2  symmetry.
 There are     4 symmetry adapted basis functions of B1  symmetry.
 There are     7 symmetry adapted basis functions of B2  symmetry.
    24 basis functions,    39 primitive gaussians,    25 cartesian basis functions
     5 alpha electrons        5 beta electrons
       nuclear repulsion energy         9.3590928662 Hartrees.
 IExCor=    0 DFT=F Ex=HF Corr=None ExCW=0 ScaHFX=  1.000000
 ScaDFX=  1.000000  1.000000  1.000000  1.000000 ScalE2=  1.000000  1.000000
 IRadAn=      5 IRanWt=     -1 IRanGd=            0 ICorTp=0 IEmpDi=  4
 NAtoms=    3 NActive=    3 NUniq=    2 SFac= 2.25D+00 NAtFMM=   60 NAOKFM=F Big=F
 Integral buffers will be    131072 words long.
 Raffenetti 1 integral format.
 Two-electron integral symmetry is turned on.
 Leave Link  301 at Wed Sep 14 13:03:13 2022, MaxMem=   536870912 cpu:               0.5 elap:               0.1
 (Enter /net/software/testing/software/gaussian/g16.C.01/g16/l302.exe)
 NPDir=0 NMtPBC=     1 NCelOv=     1 NCel=       1 NClECP=     1 NCelD=      1
         NCelK=      1 NCelE2=     1 NClLst=     1 CellRange=     0.0.
 One-electron integrals computed using PRISM.
 One-electron integral symmetry used in STVInt
   4 Symmetry operations used in ECPInt.
 ECPInt:  NShTT=      78 NPrTT=     272 LenC2=      79 LenP2D=     272.
 LDataN:  DoStor=T MaxTD1= 4 Len=   56
 NBasis=    24 RedAO= T EigKep=  3.61D-02  NBF=    11     2     4     7
 NBsUse=    24 1.00D-06 EigRej= -1.00D+00 NBFU=    11     2     4     7
 Leave Link  302 at Wed Sep 14 13:03:14 2022, MaxMem=   536870912 cpu:               0.6 elap:               0.1
 (Enter /net/software/testing/software/gaussian/g16.C.01/g16/l303.exe)
 DipDrv:  MaxL=1.
 Leave Link  303 at Wed Sep 14 13:03:14 2022, MaxMem=   536870912 cpu:               0.2 elap:               0.0
 (Enter /net/software/testing/software/gaussian/g16.C.01/g16/l401.exe)
 Initial guess from the checkpoint file:  "/net/ascratch/people/plgmradon/slurm_jobdir/845521/Gau-24106.chk"
 B after Tr=     0.000000   -0.000000    0.000000
         Rot=    1.000000   -0.000000    0.000000   -0.000000 Ang=   0.00 deg.
 Guess basis will be translated and rotated to current coordinates.
 JPrj=2 DoOrth=T DoCkMO=T.
 Initial guess orbital symmetries:
       Occupied  (A1) (A1) (B2) (A1) (B1)
       Virtual   (A1) (B2) (B2) (A1) (A1) (B1) (B2) (A1) (A2) (A1)
                 (B1) (B2) (B2) (A1) (B1) (A2) (A1) (A1) (B2)
 The electronic state of the initial guess is 1-A1.
 Generating alternative initial guess.
 ExpMin= 1.22D-01 ExpMax= 2.27D+03 ExpMxC= 3.41D+02 IAcc=3 IRadAn=         5 AccDes= 0.00D+00
 Harris functional with IExCor=  205 and IRadAn=       5 diagonalized for initial guess.
 HarFok:  IExCor=  205 AccDes= 0.00D+00 IRadAn=         5 IDoV= 1 UseB2=F ITyADJ=14
 ICtDFT=  3500011 ScaDFX=  1.000000  1.000000  1.000000  1.000000
 FoFCou: FMM=F IPFlag=           0 FMFlag=      100000 FMFlg1=           0
         NFxFlg=           0 DoJE=T BraDBF=F KetDBF=T FulRan=T
         wScrn=  0.000000 ICntrl=       500 IOpCl=  0 I1Cent=   200000004 NGrid=           0
         NMat0=    1 NMatS0=      1 NMatT0=    0 NMatD0=    1 NMtDS0=    0 NMtDT0=    0
 Petite list used in FoFCou.
 Harris En= -76.0528890174458    
 Leave Link  401 at Wed Sep 14 13:03:14 2022, MaxMem=   536870912 cpu:               1.2 elap:               0.2
 (Enter /net/software/testing/software/gaussian/g16.C.01/g16/l502.exe)
 Keep R1 ints in memory in symmetry-blocked form, NReq=1695269.
 FoFCou: FMM=F IPFlag=           0 FMFlag=           0 FMFlg1=           0
         NFxFlg=           0 DoJE=F BraDBF=F KetDBF=F FulRan=T
         wScrn=  0.000000 ICntrl=       600 IOpCl=  0 I1Cent=           0 NGrid=           0
         NMat0=    1 NMatS0=    300 NMatT0=    0 NMatD0=    1 NMtDS0=    0 NMtDT0=    0
 Petite list used in FoFCou.
 Closed shell SCF:
 Using DIIS extrapolation, IDIIS=  1040.
 NGot=   536870912 LenX=   536855066 LenY=   536854000
 Requested convergence on RMS density matrix=1.00D-08 within 128 cycles.
 Requested convergence on MAX density matrix=1.00D-06.
 Requested convergence on             energy=1.00D-06.
 No special actions if energy rises.

 Cycle   1  Pass 1  IDiag  1:
 E= -75.9551537145947    
 DIIS: error= 1.77D-02 at cycle   1 NSaved=   1.
 NSaved= 1 IEnMin= 1 EnMin= -75.9551537145947     IErMin= 1 ErrMin= 1.77D-02
 ErrMax= 1.77D-02  0.00D+00 EMaxC= 1.00D-01 BMatC= 6.26D-03 BMatP= 6.26D-03
 IDIUse=3 WtCom= 8.23D-01 WtEn= 1.77D-01
 Coeff-Com:  0.100D+01
 Coeff-En:   0.100D+01
 Coeff:      0.100D+01
 Recover alternate guess density for next cycle.
 RMSDP=9.60D-03 MaxDP=9.63D-02              OVMax= 0.00D+00

 Cycle   2  Pass 1  IDiag  1:
 E= -75.8796363145791     Delta-E=        0.075517400016 Rises=F Damp=F
 Switch densities from cycles 1 and 2 for lowest energy.
 DIIS: error= 5.92D-02 at cycle   2 NSaved=   2.
 NSaved= 2 IEnMin= 1 EnMin= -75.9551537145947     IErMin= 1 ErrMin= 1.77D-02
 ErrMax= 5.92D-02  0.00D+00 EMaxC= 1.00D+00 BMatC= 1.23D-01 BMatP= 6.26D-03
 IDIUse=1 WtCom= 1.00D+00 WtEn= 0.00D+00
 Coeff-Com:  0.901D+00 0.991D-01
 Coeff:      0.901D+00 0.991D-01
 Gap=     0.716 Goal=   None    Shift=    0.000
 RMSDP=3.83D-03 MaxDP=2.67D-02 DE= 7.55D-02 OVMax= 2.32D-02

 Cycle   3  Pass 1  IDiag  1:
 E= -75.9609735789370     Delta-E=       -0.081337264358 Rises=F Damp=F
 DIIS: error= 2.29D-03 at cycle   3 NSaved=   3.
 NSaved= 3 IEnMin= 3 EnMin= -75.9609735789370     IErMin= 3 ErrMin= 2.29D-03
 ErrMax= 2.29D-03  0.00D+00 EMaxC= 1.00D+00 BMatC= 1.71D-04 BMatP= 6.26D-03
 IDIUse=1 WtCom= 1.00D+00 WtEn= 0.00D+00
 Coeff-Com: -0.782D-01 0.105D-01 0.107D+01
 Coeff:     -0.782D-01 0.105D-01 0.107D+01
 Gap=     0.680 Goal=   None    Shift=    0.000
 RMSDP=6.54D-04 MaxDP=3.62D-03 DE=-8.13D-02 OVMax= 7.04D-03

 Cycle   4  Pass 1  IDiag  1:
 E= -75.9611935532617     Delta-E=       -0.000219974325 Rises=F Damp=F
 DIIS: error= 4.55D-04 at cycle   4 NSaved=   4.
 NSaved= 4 IEnMin= 4 EnMin= -75.9611935532617     IErMin= 4 ErrMin= 4.55D-04
 ErrMax= 4.55D-04  0.00D+00 EMaxC= 1.00D+00 BMatC= 5.96D-06 BMatP= 1.71D-04
 IDIUse=1 WtCom= 1.00D+00 WtEn= 0.00D+00
 Coeff-Com: -0.135D-01-0.378D-02-0.696D-01 0.109D+01
 Coeff:     -0.135D-01-0.378D-02-0.696D-01 0.109D+01
 Gap=     0.679 Goal=   None    Shift=    0.000
 RMSDP=1.50D-04 MaxDP=7.91D-04 DE=-2.20D-04 OVMax= 2.07D-03

 Cycle   5  Pass 1  IDiag  1:
 E= -75.9612059020638     Delta-E=       -0.000012348802 Rises=F Damp=F
 DIIS: error= 1.65D-04 at cycle   5 NSaved=   5.
 NSaved= 5 IEnMin= 5 EnMin= -75.9612059020638     IErMin= 5 ErrMin= 1.65D-04
 ErrMax= 1.65D-04  0.00D+00 EMaxC= 1.00D+00 BMatC= 4.06D-07 BMatP= 5.96D-06
 IDIUse=1 WtCom= 1.00D+00 WtEn= 0.00D+00
 Coeff-Com:  0.631D-02 0.976D-03-0.619D-02-0.367D+00 0.137D+01
 Coeff:      0.631D-02 0.976D-03-0.619D-02-0.367D+00 0.137D+01
 Gap=     0.678 Goal=   None    Shift=    0.000
 RMSDP=5.93D-05 MaxDP=3.79D-04 DE=-1.23D-05 OVMax= 9.06D-04

 Cycle   6  Pass 1  IDiag  1:
 E= -75.9612071804117     Delta-E=       -0.000001278348 Rises=F Damp=F
 DIIS: error= 3.18D-05 at cycle   6 NSaved=   6.
 NSaved= 6 IEnMin= 6 EnMin= -75.9612071804117     IErMin= 6 ErrMin= 3.18D-05
 ErrMax= 3.18D-05  0.00D+00 EMaxC= 1.00D+00 BMatC= 1.84D-08 BMatP= 4.06D-07
 IDIUse=1 WtCom= 1.00D+00 WtEn= 0.00D+00
 Coeff-Com: -0.221D-02-0.353D-03 0.402D-02 0.127D+00-0.606D+00 0.148D+01
 Coeff:     -0.221D-02-0.353D-03 0.402D-02 0.127D+00-0.606D+00 0.148D+01
 Gap=     0.678 Goal=   None    Shift=    0.000
 RMSDP=1.31D-05 MaxDP=1.02D-04 DE=-1.28D-06 OVMax= 1.94D-04

 Cycle   7  Pass 1  IDiag  1:
 E= -75.9612072332630     Delta-E=       -0.000000052851 Rises=F Damp=F
 DIIS: error= 2.92D-06 at cycle   7 NSaved=   7.
 NSaved= 7 IEnMin= 7 EnMin= -75.9612072332630     IErMin= 7 ErrMin= 2.92D-06
 ErrMax= 2.92D-06  0.00D+00 EMaxC= 1.00D+00 BMatC= 2.05D-10 BMatP= 1.84D-08
 IDIUse=1 WtCom= 1.00D+00 WtEn= 0.00D+00
 Coeff-Com:  0.349D-03 0.685D-04-0.701D-03-0.207D-01 0.109D+00-0.334D+00
 Coeff-Com:  0.125D+01
 Coeff:      0.349D-03 0.685D-04-0.701D-03-0.207D-01 0.109D+00-0.334D+00
 Coeff:      0.125D+01
 Gap=     0.678 Goal=   None    Shift=    0.000
 RMSDP=9.46D-07 MaxDP=9.22D-06 DE=-5.29D-08 OVMax= 1.13D-05

 Cycle   8  Pass 1  IDiag  1:
 E= -75.9612072336631     Delta-E=       -0.000000000400 Rises=F Damp=F
 DIIS: error= 5.28D-07 at cycle   8 NSaved=   8.
 NSaved= 8 IEnMin= 8 EnMin= -75.9612072336631     IErMin= 8 ErrMin= 5.28D-07
 ErrMax= 5.28D-07  0.00D+00 EMaxC= 1.00D+00 BMatC= 4.44D-12 BMatP= 2.05D-10
 IDIUse=1 WtCom= 1.00D+00 WtEn= 0.00D+00
 Coeff-Com: -0.424D-04-0.118D-04 0.953D-04 0.273D-02-0.155D-01 0.530D-01
 Coeff-Com: -0.284D+00 0.124D+01
 Coeff:     -0.424D-04-0.118D-04 0.953D-04 0.273D-02-0.155D-01 0.530D-01
 Coeff:     -0.284D+00 0.124D+01
 Gap=     0.678 Goal=   None    Shift=    0.000
 RMSDP=1.15D-07 MaxDP=1.31D-06 DE=-4.00D-10 OVMax= 1.74D-06

 Cycle   9  Pass 1  IDiag  1:
 E= -75.9612072336717     Delta-E=       -0.000000000009 Rises=F Damp=F
 DIIS: error= 1.00D-07 at cycle   9 NSaved=   9.
 NSaved= 9 IEnMin= 9 EnMin= -75.9612072336717     IErMin= 9 ErrMin= 1.00D-07
 ErrMax= 1.00D-07  0.00D+00 EMaxC= 1.00D+00 BMatC= 1.68D-13 BMatP= 4.44D-12
 IDIUse=1 WtCom= 1.00D+00 WtEn= 0.00D+00
 Coeff-Com: -0.881D-06 0.959D-06-0.669D-06 0.994D-05 0.127D-03-0.114D-02
 Coeff-Com:  0.231D-01-0.299D+00 0.128D+01
 Coeff:     -0.881D-06 0.959D-06-0.669D-06 0.994D-05 0.127D-03-0.114D-02
 Coeff:      0.231D-01-0.299D+00 0.128D+01
 Gap=     0.678 Goal=   None    Shift=    0.000
 RMSDP=2.47D-08 MaxDP=2.54D-07 DE=-8.55D-12 OVMax= 2.91D-07

 Cycle  10  Pass 1  IDiag  1:
 E= -75.9612072336721     Delta-E=       -0.000000000000 Rises=F Damp=F
 DIIS: error= 9.28D-09 at cycle  10 NSaved=  10.
 NSaved=10 IEnMin=10 EnMin= -75.9612072336721     IErMin=10 ErrMin= 9.28D-09
 ErrMax= 9.28D-09  0.00D+00 EMaxC= 1.00D+00 BMatC= 2.17D-15 BMatP= 1.68D-13
 IDIUse=1 WtCom= 1.00D+00 WtEn= 0.00D+00
 Coeff-Com:  0.827D-06 0.675D-07-0.238D-05-0.423D-04 0.245D-03-0.931D-03
 Coeff-Com:  0.423D-02-0.407D-02-0.932D-01 0.109D+01
 Coeff:      0.827D-06 0.675D-07-0.238D-05-0.423D-04 0.245D-03-0.931D-03
 Coeff:      0.423D-02-0.407D-02-0.932D-01 0.109D+01
 Gap=     0.678 Goal=   None    Shift=    0.000
 RMSDP=2.70D-09 MaxDP=2.05D-08 DE=-3.98D-13 OVMax= 3.19D-08

 SCF Done:  E(RHF) =  -75.9612072337     A.U. after   10 cycles
            NFock= 10  Conv=0.27D-08     -V/T= 2.0016
 KE= 7.583609852122D+01 PE=-1.991644219068D+02 EE= 3.800802328573D+01
 Leave Link  502 at Wed Sep 14 13:03:14 2022, MaxMem=   536870912 cpu:               0.7 elap:               0.1
 (Enter /net/software/testing/software/gaussian/g16.C.01/g16/l701.exe)
 ... and contract with generalized density number  0.
 Compute integral first derivatives.
   4 Symmetry operations used in ECPInt.
 ECPInt:  NShTT=      78 NPrTT=     272 LenC2=      79 LenP2D=     272.
 LDataN:  DoStor=T MaxTD1= 5 Len=  102
 Leave Link  701 at Wed Sep 14 13:03:14 2022, MaxMem=   536870912 cpu:               0.6 elap:               0.1
 (Enter /net/software/testing/software/gaussian/g16.C.01/g16/l702.exe)
 L702 exits ... SP integral derivatives will be done elsewhere.
 Leave Link  702 at Wed Sep 14 13:03:14 2022, MaxMem=   536870912 cpu:               0.2 elap:               0.0
 (Enter /net/software/testing/software/gaussian/g16.C.01/g16/l703.exe)
 Integral derivatives from FoFJK, PRISM(SPDF).
 Compute integral first derivatives, UseDBF=F ICtDFT=           0.
 Calling FoFJK, ICntrl=      2127 FMM=F ISym2X=1 I1Cent= 0 IOpClX= 0 NMat=1 NMatS=1 NMatT=0.
 FoFJK:  IHMeth= 1 ICntrl=    2127 DoSepK=F KAlg= 0 I1Cent=           0 FoldK=F
 IRaf=         0 NMat=       1 IRICut=       1 DoRegI=T DoRafI=F ISym2E= 1 IDoP0=0 IntGTp=1.
 FoFCou: FMM=F IPFlag=           0 FMFlag=      100000 FMFlg1=         800
         NFxFlg=           0 DoJE=F BraDBF=F KetDBF=F FulRan=T
         wScrn=  0.000000 ICntrl=      2127 IOpCl=  0 I1Cent=           0 NGrid=           0
         NMat0=    1 NMatS0=      1 NMatT0=    0 NMatD0=    1 NMtDS0=    0 NMtDT0=    0
 Petite list used in FoFCou.
 Leave Link  703 at Wed Sep 14 13:03:14 2022, MaxMem=   536870912 cpu:               0.8 elap:               0.1
 (Enter /net/software/testing/software/gaussian/g16.C.01/g16/l716.exe)
 Dipole        =-1.91118647D-17-2.22044605D-16-8.38104280D-01
 ***** Axes restored to original set *****
 -------------------------------------------------------------------
 Center     Atomic                   Forces (Hartrees/Bohr)
 Number     Number              X              Y              Z
 -------------------------------------------------------------------
      1        8          -0.000000000   -0.000000000   -0.002441060
      2        1           0.004748678    0.004748678    0.001220530
      3        1          -0.004748678   -0.004748678    0.001220530
 -------------------------------------------------------------------
 Cartesian Forces:  Max     0.004748678 RMS     0.003318934
 Leave Link  716 at Wed Sep 14 13:03:14 2022, MaxMem=   536870912 cpu:               0.2 elap:               0.0
 (Enter /net/software/testing/software/gaussian/g16.C.01/g16/l103.exe)

 GradGradGradGradGradGradGradGradGradGradGradGradGradGradGradGradGradGrad
 Berny optimization.
 Using GEDIIS/GDIIS optimizer.
 FormGI is forming the generalized inverse of G from B-inverse, IUseBI=4.
 Internal  Forces:  Max     0.006028284 RMS     0.005917984
 Search for a local minimum.
 Step number   2 out of a maximum of   20
 All quantities printed in internal units (Hartrees-Bohrs-Radians)
 RMS Force = .59180D-02 SwitMx=.10000D-02 MixMth= 1
 Mixed Optimization -- RFO/linear search
 Update second derivatives using D2CorX and points    1    2
 DE= -1.72D-02 DEPred=-1.79D-02 R= 9.59D-01
 TightC=F SS=  1.41D+00  RLast= 2.84D-01 DXNew= 5.0454D-01 8.5064D-01
 Trust test= 9.59D-01 RLast= 2.84D-01 DXMaxT set to 5.05D-01
 The second derivative matrix:
                          R1        R2        A1
           R1           0.44064
           R2           0.02657   0.44064
           A1           0.02195   0.02195   0.16948
 ITU=  1  0
 Use linear search instead of GDIIS.
     Eigenvalues ---    0.16628   0.41406   0.47041
 RFO step:  Lambda=-6.89167515D-05 EMin= 1.66279102D-01
 Quartic linear search produced a step of -0.05921.
 Iteration  1 RMS(Cart)=  0.01799096 RMS(Int)=  0.00014017
 Iteration  2 RMS(Cart)=  0.00009355 RMS(Int)=  0.00000001
 Iteration  3 RMS(Cart)=  0.00000001 RMS(Int)=  0.00000000
 ITry= 1 IFail=0 DXMaxC= 1.46D-02 DCOld= 1.00D+10 DXMaxT= 5.05D-01 DXLimC= 3.00D+00 Rises=F
 ClnCor:  largest displacement from symmetrization is 3.86D-14 for atom     3.
 Variable       Old X    -DE/DX   Delta X   Delta X   Delta X     New X
                                 (Linear)    (Quad)   (Total)
    R1        1.77762   0.00603   0.01103  -0.00287   0.00815   1.78577
    R2        1.77762   0.00603   0.01103  -0.00287   0.00815   1.78577
    A1        1.80564   0.00569   0.00622   0.01976   0.02597   1.83161
         Item               Value     Threshold  Converged?
 Maximum Force            0.006028     0.000450     NO 
 RMS     Force            0.005918     0.000300     NO 
 Maximum Displacement     0.014600     0.001800     NO 
 RMS     Displacement     0.017979     0.001200     NO 
 Predicted change in Energy=-1.485949D-04
 Lowest energy point so far.  Saving SCF results.
 GradGradGradGradGradGradGradGradGradGradGradGradGradGradGradGradGradGrad

 Leave Link  103 at Wed Sep 14 13:03:14 2022, MaxMem=   536870912 cpu:               0.1 elap:               0.0
 (Enter /net/software/testing/software/gaussian/g16.C.01/g16/l202.exe)
                          Input orientation:                          
 ---------------------------------------------------------------------
 Center     Atomic      Atomic             Coordinates (Angstroms)
 Number     Number       Type             X           Y           Z
 ---------------------------------------------------------------------
      1          8           0       -0.000000    0.000000    0.016238
      2          1           0        0.529925    0.529925    0.591881
      3          1           0       -0.529925   -0.529925    0.591881
 ---------------------------------------------------------------------
                    Distance matrix (angstroms):
                    1          2          3
     1  O    0.000000
     2  H    0.944989   0.000000
     3  H    0.944989   1.498854   0.000000
 Stoichiometry    H2O
 Framework group  C2V[C2(O),SGV(H2)]
 Deg. of freedom     2
 Full point group                 C2V     NOp   4
 RotChk:  IX=0 Diff= 1.72D-15
 Largest Abelian subgroup         C2V     NOp   4
 Largest concise Abelian subgroup C2      NOp   2
                         Standard orientation:                         
 ---------------------------------------------------------------------
 Center     Atomic      Atomic             Coordinates (Angstroms)
 Number     Number       Type             X           Y           Z
 ---------------------------------------------------------------------
      1          8           0        0.000000    0.000000    0.115128
      2          1           0       -0.000000    0.749427   -0.460514
      3          1           0       -0.000000   -0.749427   -0.460514
 ---------------------------------------------------------------------
 Rotational constants (GHZ):         852.0044795         446.4199845         292.9333489
 Leave Link  202 at Wed Sep 14 13:03:14 2022, MaxMem=   536870912 cpu:               0.1 elap:               0.0
 (Enter /net/software/testing/software/gaussian/g16.C.01/g16/l301.exe)
 Standard basis: def2SVP (5D, 7F)
 Ernie: Thresh=  0.10000D-02 Tol=  0.10000D-05 Strict=F.
 There are    12 symmetry adapted cartesian basis functions of A1  symmetry.
 There are     2 symmetry adapted cartesian basis functions of A2  symmetry.
 There are     4 symmetry adapted cartesian basis functions of B1  symmetry.
 There are     7 symmetry adapted cartesian basis functions of B2  symmetry.
 There are    11 symmetry adapted basis functions of A1  symmetry.
 There are     2 symmetry adapted basis functions of A2  symmetry.
 There are     4 symmetry adapted basis functions of B1  symmetry.
 There are     7 symmetry adapted basis functions of B2  symmetry.
    24 basis functions,    39 primitive gaussians,    25 cartesian basis functions
     5 alpha electrons        5 beta electrons
       nuclear repulsion energy         9.3127705268 Hartrees.
 IExCor=    0 DFT=F Ex=HF Corr=None ExCW=0 ScaHFX=  1.000000
 ScaDFX=  1.000000  1.000000  1.000000  1.000000 ScalE2=  1.000000  1.000000
 IRadAn=      5 IRanWt=     -1 IRanGd=            0 ICorTp=0 IEmpDi=  4
 NAtoms=    3 NActive=    3 NUniq=    2 SFac= 2.25D+00 NAtFMM=   60 NAOKFM=F Big=F
 Integral buffers will be    131072 words long.
 Raffenetti 1 integral format.
 Two-electron integral symmetry is turned on.
 Leave Link  301 at Wed Sep 14 13:03:14 2022, MaxMem=   536870912 cpu:               0.4 elap:               0.1
 (Enter /net/software/testing/software/gaussian/g16.C.01/g16/l302.exe)
 NPDir=0 NMtPBC=     1 NCelOv=     1 NCel=       1 NClECP=     1 NCelD=      1
         NCelK=      1 NCelE2=     1 NClLst=     1 CellRange=     0.0.
 One-electron integrals computed using PRISM.
 One-electron integral symmetry used in STVInt
   4 Symmetry operations used in ECPInt.
 ECPInt:  NShTT=      78 NPrTT=     272 LenC2=      79 LenP2D=     271.
 LDataN:  DoStor=T MaxTD1= 4 Len=   56
 NBasis=    24 RedAO= T EigKep=  3.67D-02  NBF=    11     2     4     7
 NBsUse=    24 1.00D-06 EigRej= -1.00D+00 NBFU=    11     2     4     7
 Leave Link  302 at Wed Sep 14 13:03:14 2022, MaxMem=   536870912 cpu:               0.7 elap:               0.1
 (Enter /net/software/testing/software/gaussian/g16.C.01/g16/l303.exe)
 DipDrv:  MaxL=1.
 Leave Link  303 at Wed Sep 14 13:03:15 2022, MaxMem=   536870912 cpu:               0.2 elap:               0.0
 (Enter /net/software/testing/software/gaussian/g16.C.01/g16/l401.exe)
 Initial guess from the checkpoint file:  "/net/ascratch/people/plgmradon/slurm_jobdir/845521/Gau-24106.chk"
 B after Tr=     0.000000    0.000000   -0.000000
         Rot=    1.000000    0.000000    0.000000   -0.000000 Ang=   0.00 deg.
 Guess basis will be translated and rotated to current coordinates.
 JPrj=2 DoOrth=T DoCkMO=T.
 Initial guess orbital symmetries:
       Occupied  (A1) (A1) (B2) (A1) (B1)
       Virtual   (A1) (B2) (B2) (A1) (A1) (B1) (B2) (A1) (A2) (A1)
                 (B1) (B2) (B2) (A1) (B1) (A2) (A1) (A1) (B2)
 The electronic state of the initial guess is 1-A1.
 Leave Link  401 at Wed Sep 14 13:03:15 2022, MaxMem=   536870912 cpu:               0.6 elap:               0.1
 (Enter /net/software/testing/software/gaussian/g16.C.01/g16/l502.exe)
 Keep R1 ints in memory in symmetry-blocked form, NReq=1695269.
 FoFCou: FMM=F IPFlag=           0 FMFlag=           0 FMFlg1=           0
         NFxFlg=           0 DoJE=F BraDBF=F KetDBF=F FulRan=T
         wScrn=  0.000000 ICntrl=       600 IOpCl=  0 I1Cent=           0 NGrid=           0
         NMat0=    1 NMatS0=    300 NMatT0=    0 NMatD0=    1 NMtDS0=    0 NMtDT0=    0
 Petite list used in FoFCou.
 Closed shell SCF:
 Using DIIS extrapolation, IDIIS=  1040.
 NGot=   536870912 LenX=   536855066 LenY=   536854000
 Requested convergence on RMS density matrix=1.00D-08 within 128 cycles.
 Requested convergence on MAX density matrix=1.00D-06.
 Requested convergence on             energy=1.00D-06.
 No special actions if energy rises.

 Cycle   1  Pass 1  IDiag  1:
 E= -75.9612860759900    
 DIIS: error= 1.32D-03 at cycle   1 NSaved=   1.
 NSaved= 1 IEnMin= 1 EnMin= -75.9612860759900     IErMin= 1 ErrMin= 1.32D-03
 ErrMax= 1.32D-03  0.00D+00 EMaxC= 1.00D-01 BMatC= 5.32D-05 BMatP= 5.32D-05
 IDIUse=3 WtCom= 9.87D-01 WtEn= 1.32D-02
 Coeff-Com:  0.100D+01
 Coeff-En:   0.100D+01
 Coeff:      0.100D+01
 Gap=     0.677 Goal=   None    Shift=    0.000
 GapD=    0.677 DampG=2.000 DampE=1.000 DampFc=2.0000 IDamp=-1.
 RMSDP=3.96D-04 MaxDP=2.63D-03              OVMax= 2.36D-03

 Cycle   2  Pass 1  IDiag  1:
 E= -75.9613354208873     Delta-E=       -0.000049344897 Rises=F Damp=F
 DIIS: error= 1.97D-04 at cycle   2 NSaved=   2.
 NSaved= 2 IEnMin= 2 EnMin= -75.9613354208873     IErMin= 2 ErrMin= 1.97D-04
 ErrMax= 1.97D-04  0.00D+00 EMaxC= 1.00D-01 BMatC= 1.77D-06 BMatP= 5.32D-05
 IDIUse=3 WtCom= 9.98D-01 WtEn= 1.97D-03
 Coeff-Com: -0.143D+00 0.114D+01
 Coeff-En:   0.000D+00 0.100D+01
 Coeff:     -0.143D+00 0.114D+01
 Gap=     0.677 Goal=   None    Shift=    0.000
 RMSDP=8.65D-05 MaxDP=5.75D-04 DE=-4.93D-05 OVMax= 6.11D-04

 Cycle   3  Pass 1  IDiag  1:
 E= -75.9613374134674     Delta-E=       -0.000001992580 Rises=F Damp=F
 DIIS: error= 8.10D-05 at cycle   3 NSaved=   3.
 NSaved= 3 IEnMin= 3 EnMin= -75.9613374134674     IErMin= 3 ErrMin= 8.10D-05
 ErrMax= 8.10D-05  0.00D+00 EMaxC= 1.00D-01 BMatC= 1.89D-07 BMatP= 1.77D-06
 IDIUse=1 WtCom= 1.00D+00 WtEn= 0.00D+00
 Coeff-Com: -0.530D-01 0.296D+00 0.757D+00
 Coeff:     -0.530D-01 0.296D+00 0.757D+00
 Gap=     0.677 Goal=   None    Shift=    0.000
 RMSDP=1.32D-05 MaxDP=1.10D-04 DE=-1.99D-06 OVMax= 1.24D-04

 Cycle   4  Pass 1  IDiag  1:
 E= -75.9613375502497     Delta-E=       -0.000000136782 Rises=F Damp=F
 DIIS: error= 1.36D-05 at cycle   4 NSaved=   4.
 NSaved= 4 IEnMin= 4 EnMin= -75.9613375502497     IErMin= 4 ErrMin= 1.36D-05
 ErrMax= 1.36D-05  0.00D+00 EMaxC= 1.00D-01 BMatC= 6.26D-09 BMatP= 1.89D-07
 IDIUse=1 WtCom= 1.00D+00 WtEn= 0.00D+00
 Coeff-Com:  0.609D-02-0.620D-01 0.494D-01 0.101D+01
 Coeff:      0.609D-02-0.620D-01 0.494D-01 0.101D+01
 Gap=     0.677 Goal=   None    Shift=    0.000
 RMSDP=3.43D-06 MaxDP=1.96D-05 DE=-1.37D-07 OVMax= 3.11D-05

 Cycle   5  Pass 1  IDiag  1:
 E= -75.9613375567873     Delta-E=       -0.000000006538 Rises=F Damp=F
 DIIS: error= 2.60D-06 at cycle   5 NSaved=   5.
 NSaved= 5 IEnMin= 5 EnMin= -75.9613375567873     IErMin= 5 ErrMin= 2.60D-06
 ErrMax= 2.60D-06  0.00D+00 EMaxC= 1.00D-01 BMatC= 9.32D-11 BMatP= 6.26D-09
 IDIUse=1 WtCom= 1.00D+00 WtEn= 0.00D+00
 Coeff-Com:  0.977D-03-0.339D-02-0.227D-01-0.441D-01 0.107D+01
 Coeff:      0.977D-03-0.339D-02-0.227D-01-0.441D-01 0.107D+01
 Gap=     0.677 Goal=   None    Shift=    0.000
 RMSDP=4.65D-07 MaxDP=2.56D-06 DE=-6.54D-09 OVMax= 4.93D-06

 Cycle   6  Pass 1  IDiag  1:
 E= -75.9613375569187     Delta-E=       -0.000000000131 Rises=F Damp=F
 DIIS: error= 5.64D-07 at cycle   6 NSaved=   6.
 NSaved= 6 IEnMin= 6 EnMin= -75.9613375569187     IErMin= 6 ErrMin= 5.64D-07
 ErrMax= 5.64D-07  0.00D+00 EMaxC= 1.00D-01 BMatC= 3.66D-12 BMatP= 9.32D-11
 IDIUse=1 WtCom= 1.00D+00 WtEn= 0.00D+00
 Coeff-Com: -0.333D-03 0.187D-02 0.371D-02-0.795D-02-0.258D+00 0.126D+01
 Coeff:     -0.333D-03 0.187D-02 0.371D-02-0.795D-02-0.258D+00 0.126D+01
 Gap=     0.677 Goal=   None    Shift=    0.000
 RMSDP=1.19D-07 MaxDP=9.62D-07 DE=-1.31D-10 OVMax= 1.55D-06

 Cycle   7  Pass 1  IDiag  1:
 E= -75.9613375569266     Delta-E=       -0.000000000008 Rises=F Damp=F
 DIIS: error= 8.65D-08 at cycle   7 NSaved=   7.
 NSaved= 7 IEnMin= 7 EnMin= -75.9613375569266     IErMin= 7 ErrMin= 8.65D-08
 ErrMax= 8.65D-08  0.00D+00 EMaxC= 1.00D-01 BMatC= 1.71D-13 BMatP= 3.66D-12
 IDIUse=1 WtCom= 1.00D+00 WtEn= 0.00D+00
 Coeff-Com:  0.776D-04-0.537D-03-0.386D-03 0.535D-02 0.404D-01-0.397D+00
 Coeff-Com:  0.135D+01
 Coeff:      0.776D-04-0.537D-03-0.386D-03 0.535D-02 0.404D-01-0.397D+00
 Coeff:      0.135D+01
 Gap=     0.677 Goal=   None    Shift=    0.000
 RMSDP=3.01D-08 MaxDP=2.39D-07 DE=-7.92D-12 OVMax= 3.49D-07

 Cycle   8  Pass 1  IDiag  1:
 E= -75.9613375569271     Delta-E=       -0.000000000000 Rises=F Damp=F
 DIIS: error= 1.44D-08 at cycle   8 NSaved=   8.
 NSaved= 8 IEnMin= 8 EnMin= -75.9613375569271     IErMin= 8 ErrMin= 1.44D-08
 ErrMax= 1.44D-08  0.00D+00 EMaxC= 1.00D-01 BMatC= 4.11D-15 BMatP= 1.71D-13
 IDIUse=1 WtCom= 1.00D+00 WtEn= 0.00D+00
 Coeff-Com: -0.135D-04 0.103D-03 0.540D-04-0.139D-02-0.506D-02 0.855D-01
 Coeff-Com: -0.405D+00 0.133D+01
 Coeff:     -0.135D-04 0.103D-03 0.540D-04-0.139D-02-0.506D-02 0.855D-01
 Coeff:     -0.405D+00 0.133D+01
 Gap=     0.677 Goal=   None    Shift=    0.000
 RMSDP=5.06D-09 MaxDP=3.68D-08 DE=-4.69D-13 OVMax= 7.11D-08

 SCF Done:  E(RHF) =  -75.9613375569     A.U. after    8 cycles
            NFock=  8  Conv=0.51D-08     -V/T= 2.0019
 KE= 7.581629326321D+01 PE=-1.990680622187D+02 EE= 3.797766087178D+01
 Leave Link  502 at Wed Sep 14 13:03:15 2022, MaxMem=   536870912 cpu:               0.7 elap:               0.1
 (Enter /net/software/testing/software/gaussian/g16.C.01/g16/l701.exe)
 ... and contract with generalized density number  0.
 Compute integral first derivatives.
   4 Symmetry operations used in ECPInt.
 ECPInt:  NShTT=      78 NPrTT=     272 LenC2=      79 LenP2D=     271.
 LDataN:  DoStor=T MaxTD1= 5 Len=  102
 Leave Link  701 at Wed Sep 14 13:03:15 2022, MaxMem=   536870912 cpu:               0.6 elap:               0.1
 (Enter /net/software/testing/software/gaussian/g16.C.01/g16/l702.exe)
 L702 exits ... SP integral derivatives will be done elsewhere.
 Leave Link  702 at Wed Sep 14 13:03:15 2022, MaxMem=   536870912 cpu:               0.2 elap:               0.0
 (Enter /net/software/testing/software/gaussian/g16.C.01/g16/l703.exe)
 Integral derivatives from FoFJK, PRISM(SPDF).
 Compute integral first derivatives, UseDBF=F ICtDFT=           0.
 Calling FoFJK, ICntrl=      2127 FMM=F ISym2X=1 I1Cent= 0 IOpClX= 0 NMat=1 NMatS=1 NMatT=0.
 FoFJK:  IHMeth= 1 ICntrl=    2127 DoSepK=F KAlg= 0 I1Cent=           0 FoldK=F
 IRaf=         0 NMat=       1 IRICut=       1 DoRegI=T DoRafI=F ISym2E= 1 IDoP0=0 IntGTp=1.
 FoFCou: FMM=F IPFlag=           0 FMFlag=      100000 FMFlg1=         800
         NFxFlg=           0 DoJE=F BraDBF=F KetDBF=F FulRan=T
         wScrn=  0.000000 ICntrl=      2127 IOpCl=  0 I1Cent=           0 NGrid=           0
         NMat0=    1 NMatS0=      1 NMatT0=    0 NMatD0=    1 NMtDS0=    0 NMtDT0=    0
 Petite list used in FoFCou.
 Leave Link  703 at Wed Sep 14 13:03:15 2022, MaxMem=   536870912 cpu:               0.8 elap:               0.1
 (Enter /net/software/testing/software/gaussian/g16.C.01/g16/l716.exe)
 Dipole        =-4.43438010D-17-2.22044605D-16-8.31136378D-01
 ***** Axes restored to original set *****
 -------------------------------------------------------------------
 Center     Atomic                   Forces (Hartrees/Bohr)
 Number     Number              X              Y              Z
 -------------------------------------------------------------------
      1        8          -0.000000000   -0.000000000    0.000438753
      2        1           0.000170526    0.000170526   -0.000219377
      3        1          -0.000170526   -0.000170526   -0.000219377
 -------------------------------------------------------------------
 Cartesian Forces:  Max     0.000438753 RMS     0.000212151
 Leave Link  716 at Wed Sep 14 13:03:15 2022, MaxMem=   536870912 cpu:               0.2 elap:               0.0
 (Enter /net/software/testing/software/gaussian/g16.C.01/g16/l103.exe)

 GradGradGradGradGradGradGradGradGradGradGradGradGradGradGradGradGradGrad
 Berny optimization.
 Using GEDIIS/GDIIS optimizer.
 FormGI is forming the generalized inverse of G from B-inverse, IUseBI=4.
 Internal  Forces:  Max     0.000573020 RMS     0.000334161
 Search for a local minimum.
 Step number   3 out of a maximum of   20
 All quantities printed in internal units (Hartrees-Bohrs-Radians)
 RMS Force = .33416D-03 SwitMx=.10000D-02 MixMth= 2
 Mixed Optimization -- En-DIIS/RFO-DIIS
 Update second derivatives using D2CorX and points    1    2    3
 DE= -1.30D-04 DEPred=-1.49D-04 R= 8.77D-01
 TightC=F SS=  1.41D+00  RLast= 2.84D-02 DXNew= 8.4853D-01 8.5257D-02
 Trust test= 8.77D-01 RLast= 2.84D-02 DXMaxT set to 5.05D-01
 The second derivative matrix:
                          R1        R2        A1
           R1           0.49600
           R2           0.08194   0.49600
           A1           0.04844   0.04844   0.16663
 ITU=  1  1  0
 Use linear search instead of GDIIS.
     Eigenvalues ---    0.15552   0.41406   0.58905
 RFO step:  Lambda=-9.51062723D-07 EMin= 1.55519393D-01
 Quartic linear search produced a step of  0.06998.
 Iteration  1 RMS(Cart)=  0.00194132 RMS(Int)=  0.00000239
 Iteration  2 RMS(Cart)=  0.00000216 RMS(Int)=  0.00000000
 Iteration  3 RMS(Cart)=  0.00000000 RMS(Int)=  0.00000000
 ITry= 1 IFail=0 DXMaxC= 1.79D-03 DCOld= 1.00D+10 DXMaxT= 5.05D-01 DXLimC= 3.00D+00 Rises=F
 ClnCor:  largest displacement from symmetrization is 2.91D-15 for atom     3.
 Variable       Old X    -DE/DX   Delta X   Delta X   Delta X     New X
                                 (Linear)    (Quad)   (Total)
    R1        1.78577   0.00006   0.00057  -0.00077  -0.00020   1.78557
    R2        1.78577   0.00006   0.00057  -0.00077  -0.00020   1.78557
    A1        1.83161   0.00057   0.00182   0.00179   0.00361   1.83522
         Item               Value     Threshold  Converged?
 Maximum Force            0.000573     0.000450     NO 
 RMS     Force            0.000334     0.000300     NO 
 Maximum Displacement     0.001786     0.001800     YES
 RMS     Displacement     0.001940     0.001200     NO 
 Predicted change in Energy=-1.006612D-06
 Lowest energy point so far.  Saving SCF results.
 GradGradGradGradGradGradGradGradGradGradGradGradGradGradGradGradGradGrad

 Leave Link  103 at Wed Sep 14 13:03:15 2022, MaxMem=   536870912 cpu:               0.1 elap:               0.0
 (Enter /net/software/testing/software/gaussian/g16.C.01/g16/l202.exe)
                          Input orientation:                          
 ---------------------------------------------------------------------
 Center     Atomic      Atomic             Coordinates (Angstroms)
 Number     Number       Type             X           Y           Z
 ---------------------------------------------------------------------
      1          8           0       -0.000000   -0.000000    0.017183
      2          1           0        0.530600    0.530600    0.591408
      3          1           0       -0.530600   -0.530600    0.591408
 ---------------------------------------------------------------------
                    Distance matrix (angstroms):
                    1          2          3
     1  O    0.000000
     2  H    0.944885   0.000000
     3  H    0.944885   1.500763   0.000000
 Stoichiometry    H2O
 Framework group  C2V[C2(O),SGV(H2)]
 Deg. of freedom     2
 Full point group                 C2V     NOp   4
 RotChk:  IX=0 Diff= 1.47D-15
 Largest Abelian subgroup         C2V     NOp   4
 Largest concise Abelian subgroup C2      NOp   2
                         Standard orientation:                         
 ---------------------------------------------------------------------
[...]
 Vibrational             14.506              0.030              0.004
                       Q            Log10(Q)             Ln(Q)
 Total Bot       0.287872D-02         -2.540801         -5.850410
 Total V=0       0.123389D+09          8.091277         18.630855
 Vib (Bot)       0.233354D-10        -10.631985        -24.481050
 Vib (V=0)       0.100021D+01          0.000093          0.000215
 Electronic      0.100000D+01          0.000000          0.000000
 Translational   0.300431D+07          6.477745         14.915559
 Rotational      0.410619D+02          1.613439          3.715081
 
                                                              h2o, vibr
                                                             IR Spectrum
 
     4  4                                                                       1                                                    
     2  1                                                                       7                                                    
     4  5                                                                       5                                                    
     6  0                                                                       0                                                    
 
     X  X                                                                       X                                                    
     X  X                                                                       X                                                    
     X  X                                                                       X                                                    
     X  X                                                                       X                                                    
     X  X                                                                       X                                                    
     X  X                                                                       X                                                    
     X                                                                          X                                                    
     X                                                                          X                                                    
     X                                                                          X                                                    
     X                                                                          X                                                    
     X                                                                          X                                                    
     X                                                                          X                                                    
     X                                                                          X                                                    
     X                                                                          X                                                    
     X                                                                          X                                                    
     X                                                                          X                                                    
     X                                                                          X                                                    
     X                                                                          X                                                    
                                                                                X                                                    
                                                                                X                                                    
 
 
                                                              h2o, vibr
                                                            Raman Spectrum
 
     4  4                                                                       1                                                    
     2  1                                                                       7                                                    
     4  5                                                                       5                                                    
     6  0                                                                       0                                                    
 
     X  X                                                                       X                                                    
     X  X                                                                       X                                                    
     X  X                                                                                                                            
     X  X                                                                                                                            
     X  X                                                                                                                            
     X  X                                                                                                                            
     X  X                                                                                                                            
     X  X                                                                                                                            
     X  X                                                                                                                            
     X  X                                                                                                                            
        X                                                                                                                            
        X                                                                                                                            
        X                                                                                                                            
        X                                                                                                                            
        X                                                                                                                            
        X                                                                                                                            
        X                                                                                                                            
        X                                                                                                                            
        X                                                                                                                            
        X                                                                                                                            
 
 ***** Axes restored to original set *****
 -------------------------------------------------------------------
 Center     Atomic                   Forces (Hartrees/Bohr)
 Number     Number              X              Y              Z
 -------------------------------------------------------------------
      1        8          -0.000000000    0.000000000   -0.000140804
      2        1           0.000032935    0.000032935    0.000070402
      3        1          -0.000032935   -0.000032935    0.000070402
 -------------------------------------------------------------------
 Cartesian Forces:  Max     0.000140804 RMS     0.000061534
 Force constants in Cartesian coordinates: 
                1             2             3             4             5 
      1  0.401678D+00
      2  0.401808D+00  0.401678D+00
      3  0.000000D+00  0.000000D+00  0.542481D+00
      4 -0.200839D+00 -0.200904D+00 -0.171556D+00  0.217468D+00
      5 -0.200904D+00 -0.200839D+00 -0.171556D+00  0.217517D+00  0.217468D+00
      6 -0.217422D+00 -0.217422D+00 -0.271240D+00  0.194489D+00  0.194489D+00
      7 -0.200839D+00 -0.200904D+00  0.171556D+00 -0.166290D-01 -0.166130D-01
      8 -0.200904D+00 -0.200839D+00  0.171556D+00 -0.166130D-01 -0.166290D-01
      9  0.217422D+00  0.217422D+00 -0.271240D+00 -0.229331D-01 -0.229331D-01
                6             7             8             9 
      6  0.253253D+00
      7  0.229331D-01  0.217468D+00
      8  0.229331D-01  0.217517D+00  0.217468D+00
      9  0.179876D-01 -0.194489D+00 -0.194489D+00  0.253253D+00
 FormGI is forming the generalized inverse of G from B-inverse, IUseBI=4.
 Force constants in internal coordinates: 
                1             2             3 
      1  0.633356D+00
      2 -0.369690D-02  0.633356D+00
      3  0.282807D-01  0.282807D-01  0.175121D+00
 Leave Link  716 at Wed Sep 14 13:03:18 2022, MaxMem=   536870912 cpu:               0.2 elap:               0.1
 (Enter /net/software/testing/software/gaussian/g16.C.01/g16/l103.exe)

 GradGradGradGradGradGradGradGradGradGradGradGradGradGradGradGradGradGrad
 Berny optimization.
 Red2BG is reusing G-inverse.
 Internal  Forces:  Max     0.000079774 RMS     0.000071080
 Search for a local minimum.
 Step number   1 out of a maximum of    2
 All quantities printed in internal units (Hartrees-Bohrs-Radians)
 Second derivative matrix not updated -- analytic derivatives used.
 The second derivative matrix:
                          R1        R2        A1
           R1           0.63336
           R2          -0.00370   0.63336
           A1           0.02828   0.02828   0.17512
 ITU=  0
     Eigenvalues ---    0.17163   0.63315   0.63705
 Angle between quadratic step and forces=  34.96 degrees.
 Linear search not attempted -- first point.
 Iteration  1 RMS(Cart)=  0.00015901 RMS(Int)=  0.00000002
 Iteration  2 RMS(Cart)=  0.00000003 RMS(Int)=  0.00000000
 ITry= 1 IFail=0 DXMaxC= 2.12D-04 DCOld= 1.00D+10 DXMaxT= 3.00D-01 DXLimC= 3.00D+00 Rises=F
 ClnCor:  largest displacement from symmetrization is 6.66D-16 for atom     3.
 Variable       Old X    -DE/DX   Delta X   Delta X   Delta X     New X
                                 (Linear)    (Quad)   (Total)
    R1        1.78557   0.00008   0.00000   0.00014   0.00014   1.78571
    R2        1.78557   0.00008   0.00000   0.00014   0.00014   1.78571
    A1        1.83522  -0.00005   0.00000  -0.00033  -0.00033   1.83489
         Item               Value     Threshold  Converged?
 Maximum Force            0.000080     0.000450     YES
 RMS     Force            0.000071     0.000300     YES
 Maximum Displacement     0.000212     0.001800     YES
 RMS     Displacement     0.000159     0.001200     YES
 Predicted change in Energy=-1.934057D-08
 Optimization completed.
    -- Stationary point found.
                           ----------------------------
                           !   Optimized Parameters   !
                           ! (Angstroms and Degrees)  !
 --------------------------                            --------------------------
 ! Name  Definition              Value          Derivative Info.                !
 --------------------------------------------------------------------------------
 ! R1    R(1,2)                  0.9449         -DE/DX =    0.0001              !
 ! R2    R(1,3)                  0.9449         -DE/DX =    0.0001              !
 ! A1    A(2,1,3)              105.1504         -DE/DX =    0.0                 !
 --------------------------------------------------------------------------------
 GradGradGradGradGradGradGradGradGradGradGradGradGradGradGradGradGradGrad

 Leave Link  103 at Wed Sep 14 13:03:18 2022, MaxMem=   536870912 cpu:               0.1 elap:               0.0
 (Enter /net/software/testing/software/gaussian/g16.C.01/g16/l9999.exe)

 ----------------------------------------------------------------------

 Electric dipole moment (input orientation):
 (Debye = 10**-18 statcoulomb cm , SI units = C m)
                  (au)            (Debye)         (10**-30 SI)
   Tot        0.829846D+00      0.210926D+01      0.703573D+01
   x          0.000000D+00      0.000000D+00      0.000000D+00
   y          0.000000D+00      0.000000D+00      0.000000D+00
   z          0.829846D+00      0.210926D+01      0.703573D+01

 Dipole polarizability, Alpha (input orientation).
 (esu units = cm**3 , SI units = C**2 m**2 J**-1)
 Alpha(0;0):
               (au)            (10**-24 esu)      (10**-40 SI)
   iso        0.479268D+01      0.710202D+00      0.790207D+00
   aniso      0.310123D+01      0.459555D+00      0.511324D+00
   xx         0.477454D+01      0.707513D+00      0.787215D+00
   yx         0.179022D+01      0.265283D+00      0.295168D+00
   yy         0.477454D+01      0.707513D+00      0.787215D+00
   zx         0.000000D+00      0.000000D+00      0.000000D+00
   zy         0.000000D+00      0.000000D+00      0.000000D+00
   zz         0.482897D+01      0.715580D+00      0.796190D+00

 First dipole hyperpolarizability, Beta (input orientation).
 ||, _|_  parallel and perpendicular components, (z) with respect to z axis,
 vector components x,y,z.  Values do not include the 1/n! factor of 1/2.
 (esu units = statvolt**-1 cm**4 , SI units = C**3 m**3 J**-2)
 Beta(0;0,0):
               (au)            (10**-30 esu)      (10**-50 SI)
   || (z)     0.170939D+02      0.147678D+00      0.548093D-01
   _|_(z)     0.569797D+01      0.492261D-01      0.182698D-01
   x          0.000000D+00      0.000000D+00      0.000000D+00
   y          0.000000D+00      0.000000D+00      0.000000D+00
   z          0.854696D+02      0.738391D+00      0.274046D+00
   ||         0.170939D+02      0.147678D+00      0.548093D-01
   xxx        0.000000D+00      0.000000D+00      0.000000D+00
   xxy        0.000000D+00      0.000000D+00      0.000000D+00
   yxy        0.000000D+00      0.000000D+00      0.000000D+00
   yyy        0.000000D+00      0.000000D+00      0.000000D+00
   xxz        0.913323D+01      0.789040D-01      0.292845D-01
   yxz        0.760154D+01      0.656714D-01      0.243733D-01
   yyz        0.913323D+01      0.789040D-01      0.292845D-01
   zxz        0.000000D+00      0.000000D+00      0.000000D+00
   zyz        0.000000D+00      0.000000D+00      0.000000D+00
   zzz        0.102234D+02      0.883223D-01      0.327799D-01

 ----------------------------------------------------------------------

 Dipole orientation:
     8         -0.00000000         -0.00000000          0.03247174
     1          1.00268851          1.00268851          1.11759981
     1         -1.00268851         -1.00268851          1.11759981

 Electric dipole moment (dipole orientation):
 (Debye = 10**-18 statcoulomb cm , SI units = C m)
                  (au)            (Debye)         (10**-30 SI)
   Tot        0.829846D+00      0.210926D+01      0.703573D+01
   x          0.000000D+00      0.000000D+00      0.000000D+00
   y          0.000000D+00      0.000000D+00      0.000000D+00
   z          0.829846D+00      0.210926D+01      0.703573D+01

 Dipole polarizability, Alpha (dipole orientation).
 (esu units = cm**3 , SI units = C**2 m**2 J**-1)
 Alpha(0;0):
               (au)            (10**-24 esu)      (10**-40 SI)
   iso        0.479268D+01      0.710202D+00      0.790207D+00
   aniso      0.310123D+01      0.459555D+00      0.511324D+00
   xx         0.477454D+01      0.707513D+00      0.787215D+00
   yx         0.179022D+01      0.265283D+00      0.295168D+00
   yy         0.477454D+01      0.707513D+00      0.787215D+00
   zx         0.000000D+00      0.000000D+00      0.000000D+00
   zy         0.000000D+00      0.000000D+00      0.000000D+00
   zz         0.482897D+01      0.715580D+00      0.796190D+00

 First dipole hyperpolarizability, Beta (dipole orientation).
 ||, _|_  parallel and perpendicular components, (z) with respect to z axis,
 vector components x,y,z.  Values do not include the 1/n! factor of 1/2.
 (esu units = statvolt**-1 cm**4 , SI units = C**3 m**3 J**-2)
 Beta(0;0,0):
               (au)            (10**-30 esu)      (10**-50 SI)
   || (z)     0.170939D+02      0.147678D+00      0.548093D-01
   _|_(z)     0.569797D+01      0.492261D-01      0.182698D-01
   x          0.000000D+00      0.000000D+00      0.000000D+00
   y          0.000000D+00      0.000000D+00      0.000000D+00
   z          0.854696D+02      0.738391D+00      0.274046D+00
   ||         0.170939D+02      0.147678D+00      0.548093D-01
   xxx        0.000000D+00      0.000000D+00      0.000000D+00
   xxy        0.000000D+00      0.000000D+00      0.000000D+00
   yxy        0.000000D+00      0.000000D+00      0.000000D+00
   yyy        0.000000D+00      0.000000D+00      0.000000D+00
   xxz        0.913323D+01      0.789040D-01      0.292845D-01
   yxz        0.760154D+01      0.656714D-01      0.243733D-01
   yyz        0.913323D+01      0.789040D-01      0.292845D-01
   zxz        0.000000D+00      0.000000D+00      0.000000D+00
   zyz        0.000000D+00      0.000000D+00      0.000000D+00
   zzz        0.102234D+02      0.883223D-01      0.327799D-01

 ----------------------------------------------------------------------
 Unable to Open any file for archive entry.
 1\1\GINC-AC0013\Freq\RHF\def2SVP\H2O1\PLGMRADON\14-Sep-2022\0\\#P Geom
 =AllCheck Guess=TCheck SCRF=Check GenChk RHF/def2SVP Freq\\h2o, vibr\\
 0,1\O,0.,0.,0.017183303\H,0.5305999092,0.5305999092,0.5914083485\H,-0.
 5305999092,-0.5305999092,0.5914083485\\Version=ES64L-G16RevC.01\State=
 1-A1\HF=-75.9613385\RMSD=8.456e-10\RMSF=6.153e-05\ZeroPoint=0.0231148\
 Thermal=0.0259491\ETot=-75.9353894\HTot=-75.9344452\GTot=-75.9558146\D
 ipole=0.,0.,0.8298458\DipoleDeriv=-0.663287,0.1014576,0.,0.1014576,-0.
 663287,0.,0.,0.,-0.4455777,0.3316435,-0.0507288,-0.0192717,-0.0507288,
 0.3316435,-0.0192717,-0.0548996,-0.0548996,0.2227888,0.3316435,-0.0507
 288,0.0192717,-0.0507288,0.3316435,0.0192717,0.0548996,0.0548996,0.222
 7888\Polar=4.774536,1.7902209,4.774536,0.,0.,4.8289744\PolarDeriv=0.,0
 .,0.,-3.0249253,-1.3249794,0.,0.,0.,0.,-1.3249794,-3.0249253,0.,-2.487
 5593,-2.5071148,-2.4875593,0.,0.,-5.2222892,2.4648683,1.6344835,0.6794
 476,1.5124627,0.6624897,0.7237293,0.6794476,1.6344835,2.4648683,0.6624
 897,1.5124627,0.7237293,1.2437797,1.2535574,1.2437797,1.6096689,1.6096
 689,2.6111446,-2.4648683,-1.6344835,-0.6794476,1.5124627,0.6624897,-0.
 7237293,-0.6794476,-1.6344835,-2.4648683,0.6624897,1.5124627,-0.723729
 3,1.2437797,1.2535574,1.2437797,-1.6096689,-1.6096689,2.6111446\HyperP
 olar=0.,0.,0.,0.,9.1332342,7.6015364,9.1332342,0.,0.,10.2234054\Quadru
 pole=0.0899684,0.0899684,-0.1799367,1.0653524,0.,0.\PG=C02V [C2(O1),SG
 V(H2)]\NImag=0\\0.40167788,0.40180763,0.40167788,0.,0.,0.54248056,-0.2
 0083894,-0.20090382,-0.17155556,0.21746796,-0.20090382,-0.20083894,-0.
 17155556,0.21751682,0.21746796,-0.21742183,-0.21742183,-0.27124028,0.1
 9448870,0.19448870,0.25325268,-0.20083894,-0.20090382,0.17155556,-0.01
 662901,-0.01661300,0.02293313,0.21746796,-0.20090382,-0.20083894,0.171
 55556,-0.01661300,-0.01662901,0.02293313,0.21751682,0.21746796,0.21742
 183,0.21742183,-0.27124028,-0.02293313,-0.02293313,0.01798760,-0.19448
 870,-0.19448870,0.25325268\\0.,0.,0.00014080,-0.00003294,-0.00003294,-
 0.00007040,0.00003294,0.00003294,-0.00007040\\\@
 The archive entry for this job was punched.


 LIFE IS SO UNCERTAIN - EAT DESSERT FIRST.
 Job cpu time:       0 days  0 hours  0 minutes 10.5 seconds.
 Elapsed time:       0 days  0 hours  0 minutes  1.8 seconds.
 File lengths (MBytes):  RWF=      6 Int=      0 D2E=      0 Chk=      1 Scr=      1
 Normal termination of Gaussian 16 at Wed Sep 14 13:03:18 2022.
