 Entering Gaussian System, Link 0=g16
 Input=/tmp/pytest-of-osl/pytest-1/test_property__destination__Ga19/Pyridine/Gaussian 16 Excited States Post-HF Optimised S(1) EOM-CCSD Gas Phase Pople Basis Sets STO-3G/Input/Pyridine.com
 Output=/tmp/pytest-of-osl/pytest-1/test_property__destination__Ga19/Pyridine/Gaussian 16 Excited States Post-HF Optimised S(1) EOM-CCSD Gas Phase Pople Basis Sets STO-3G/Output/Pyridine.log
 Initial command:
 /gpfs1/apps/software/Gaussian16/AVX/g16/l1.exe "/scratch/tmp/osl/5806a859a1b146c8b6eb3ad76861b368/Gau-28975.inp" -scrdir="/scratch/tmp/osl/5806a859a1b146c8b6eb3ad76861b368/"
 Entering Link 1 = /gpfs1/apps/software/Gaussian16/AVX/g16/l1.exe PID=     28976.
  
 Copyright (c) 1988-2019, Gaussian, Inc.  All Rights Reserved.
  
 This is part of the Gaussian(R) 16 program.  It is based on
 the Gaussian(R) 09 system (copyright 2009, Gaussian, Inc.),
 the Gaussian(R) 03 system (copyright 2003, Gaussian, Inc.),
 the Gaussian(R) 98 system (copyright 1998, Gaussian, Inc.),
 the Gaussian(R) 94 system (copyright 1995, Gaussian, Inc.),
 the Gaussian 92(TM) system (copyright 1992, Gaussian, Inc.),
 the Gaussian 90(TM) system (copyright 1990, Gaussian, Inc.),
 the Gaussian 88(TM) system (copyright 1988, Gaussian, Inc.),
 the Gaussian 86(TM) system (copyright 1986, Carnegie Mellon
 University), and the Gaussian 82(TM) system (copyright 1983,
 Carnegie Mellon University). Gaussian is a federally registered
 trademark of Gaussian, Inc.
  
 This software contains proprietary and confidential information,
 including trade secrets, belonging to Gaussian, Inc.
  
 This software is provided under written license and may be
 used, copied, transmitted, or stored only in accord with that
 written license.
  
 The following legend is applicable only to US Government
 contracts under FAR:
  
                    RESTRICTED RIGHTS LEGEND
  
 Use, reproduction and disclosure by the US Government is
 subject to restrictions as set forth in subparagraphs (a)
 and (c) of the Commercial Computer Software - Restricted
 Rights clause in FAR 52.227-19.
  
 Gaussian, Inc.
 340 Quinnipiac St., Bldg. 40, Wallingford CT 06492
  
  
 ---------------------------------------------------------------
 Warning -- This program may not be used in any manner that
 competes with the business of Gaussian, Inc. or will provide
 assistance to any competitor of Gaussian, Inc.  The licensee
 of this program is prohibited from giving any competitor of
 Gaussian, Inc. access to this program.  By using this program,
 the user acknowledges that Gaussian, Inc. is engaged in the
 business of creating and licensing software in the field of
 computational chemistry and represents and warrants to the
 licensee that it is not a competitor of Gaussian, Inc. and that
 it will not use this program in any manner prohibited above.
 ---------------------------------------------------------------
  

 Cite this work as:
 Gaussian 16, Revision C.01,
 M. J. Frisch, G. W. Trucks, H. B. Schlegel, G. E. Scuseria, 
 M. A. Robb, J. R. Cheeseman, G. Scalmani, V. Barone, 
 G. A. Petersson, H. Nakatsuji, X. Li, M. Caricato, A. V. Marenich, 
 J. Bloino, B. G. Janesko, R. Gomperts, B. Mennucci, H. P. Hratchian, 
 J. V. Ortiz, A. F. Izmaylov, J. L. Sonnenberg, D. Williams-Young, 
 F. Ding, F. Lipparini, F. Egidi, J. Goings, B. Peng, A. Petrone, 
 T. Henderson, D. Ranasinghe, V. G. Zakrzewski, J. Gao, N. Rega, 
 G. Zheng, W. Liang, M. Hada, M. Ehara, K. Toyota, R. Fukuda, 
 J. Hasegawa, M. Ishida, T. Nakajima, Y. Honda, O. Kitao, H. Nakai, 
 T. Vreven, K. Throssell, J. A. Montgomery, Jr., J. E. Peralta, 
 F. Ogliaro, M. J. Bearpark, J. J. Heyd, E. N. Brothers, K. N. Kudin, 
 V. N. Staroverov, T. A. Keith, R. Kobayashi, J. Normand, 
 K. Raghavachari, A. P. Rendell, J. C. Burant, S. S. Iyengar, 
 J. Tomasi, M. Cossi, J. M. Millam, M. Klene, C. Adamo, R. Cammi, 
 J. W. Ochterski, R. L. Martin, K. Morokuma, O. Farkas, 
 J. B. Foresman, and D. J. Fox, Gaussian, Inc., Wallingford CT, 2019.
 
 ******************************************
 Gaussian 16:  ES64L-G16RevC.01  3-Jul-2019
                 1-Oct-2024 
 ******************************************
 %Chk="Pyridine.chk"
 %Rwf="Pyridine.rwf"
 %NProcShared=16
 Will use up to   16 processors via shared memory.
 %Mem=32GB
 ----------------------------------------------------------------------
 #p Opt EOMCCSD=(nstates=2, root=1) STO-3G Symmetry=(Tight) Population=
 (Regular) Density=(SCF)
 ----------------------------------------------------------------------
 1/18=20,19=15,38=1/1,3;
 2/9=110,12=2,40=1/2;
 3/6=3,11=9,25=1,30=1,71=1/1,2,3,8;
 4//1;
 5/5=2,38=5/2;
 8/6=1,10=1,68=101,105=8,107=1,108=2/1;
 9/8=1,41=2,42=1,68=1/14;
 8/6=4,9=120000,10=92,68=1,105=8,107=1,108=2/1,4;
 9/5=7,15=1,41=2,68=1/13;
 11/28=-16,29=200,42=3/11;
 10/5=6,28=1/2;
 6//1;
 7/12=7/1,2,3,16;
 1/18=20,19=15/3(2);
 2/9=110/2;
 99//99;
 2/9=110/2;
 3/6=3,11=9,25=1,30=1,71=1/1,2,3,8;
 4/5=5,16=3,69=1,133=2/1;
 5/5=2,38=5/2;
 8/6=4,9=120000,10=92,24=1,68=1,69=-2,105=8,107=1,108=2/1,4;
 9/5=7,15=1,41=2,68=1,114=-2/13;
 11/28=-16,29=200,42=3/11;
 10/5=6,28=1/2;
 7/12=7/1,2,3,16;
 1/18=20,19=15/3(-9);
 2/9=110/2;
 6//1;
 99/9=10/99;
 Leave Link    1 at Tue Oct  1 22:19:48 2024, MaxMem=  4294967296 cpu:               2.9 elap:               0.2
 (Enter /gpfs1/apps/software/Gaussian16/AVX/g16/l101.exe)
 ----------------------------------------------------------------------
 Pyridine_Excited_States_Post_HF_Optimised_S_1__EOM_CCSD_Gas_Phase_Popl
 e_Basis_Sets_STO_3G
 ----------------------------------------------------------------------
 Symbolic Z-matrix:
 Charge =  0 Multiplicity = 1
 N                    -1.36068  -0.04851   0.00514 
 C                    -0.69236   1.12548   0.00316 
 C                     0.68982   1.22568   0.00009 
 C                     1.43473   0.05098  -0.00151 
 C                     0.77522  -1.17369   0.00026 
 C                    -0.61058  -1.17202   0.00377 
 H                    -1.31775   2.01352   0.00412 
 H                     1.17356   2.19574  -0.00108 
 H                     2.52016   0.08962  -0.00411 
 H                     1.3267   -2.10691  -0.001 
 H                    -1.17125  -2.10227   0.00566 
 
 ITRead=  0  0  0  0  0  0  0  0  0  0  0
 MicOpt= -1 -1 -1 -1 -1 -1 -1 -1 -1 -1 -1
 NAtoms=     11 NQM=       11 NQMF=       0 NMMI=      0 NMMIF=      0
                NMic=       0 NMicF=      0.
                    Isotopes and Nuclear Properties:
 (Nuclear quadrupole moments (NQMom) in fm**2, nuclear magnetic moments (NMagM)
  in nuclear magnetons)

  Atom         1           2           3           4           5           6           7           8           9          10
 IAtWgt=          14          12          12          12          12          12           1           1           1           1
 AtmWgt=  14.0030740  12.0000000  12.0000000  12.0000000  12.0000000  12.0000000   1.0078250   1.0078250   1.0078250   1.0078250
 NucSpn=           2           0           0           0           0           0           1           1           1           1
 AtZEff=  -0.0000000  -0.0000000  -0.0000000  -0.0000000  -0.0000000  -0.0000000  -0.0000000  -0.0000000  -0.0000000  -0.0000000
 NQMom=    2.0440000   0.0000000   0.0000000   0.0000000   0.0000000   0.0000000   0.0000000   0.0000000   0.0000000   0.0000000
 NMagM=    0.4037610   0.0000000   0.0000000   0.0000000   0.0000000   0.0000000   2.7928460   2.7928460   2.7928460   2.7928460
 AtZNuc=   7.0000000   6.0000000   6.0000000   6.0000000   6.0000000   6.0000000   1.0000000   1.0000000   1.0000000   1.0000000

  Atom        11
 IAtWgt=           1
 AtmWgt=   1.0078250
 NucSpn=           1
 AtZEff=  -0.0000000
 NQMom=    0.0000000
 NMagM=    2.7928460
 AtZNuc=   1.0000000
 Leave Link  101 at Tue Oct  1 22:19:48 2024, MaxMem=  4294967296 cpu:              11.5 elap:               0.7
 (Enter /gpfs1/apps/software/Gaussian16/AVX/g16/l103.exe)

 GradGradGradGradGradGradGradGradGradGradGradGradGradGradGradGradGradGrad
 Berny optimization.
 Initialization pass.
                           ----------------------------
                           !    Initial Parameters    !
                           ! (Angstroms and Degrees)  !
 --------------------------                            --------------------------
 ! Name  Definition              Value          Derivative Info.                !
 --------------------------------------------------------------------------------
 ! R1    R(1,2)                  1.3509         estimate D2E/DX2                !
 ! R2    R(1,6)                  1.3509         estimate D2E/DX2                !
 ! R3    R(2,3)                  1.3858         estimate D2E/DX2                !
 ! R4    R(2,7)                  1.0862         estimate D2E/DX2                !
 ! R5    R(3,4)                  1.391          estimate D2E/DX2                !
 ! R6    R(3,8)                  1.084          estimate D2E/DX2                !
 ! R7    R(4,5)                  1.391          estimate D2E/DX2                !
 ! R8    R(4,9)                  1.0861         estimate D2E/DX2                !
 ! R9    R(5,6)                  1.3858         estimate D2E/DX2                !
 ! R10   R(5,10)                 1.084          estimate D2E/DX2                !
 ! R11   R(6,11)                 1.0861         estimate D2E/DX2                !
 ! A1    A(2,1,6)              116.6195         estimate D2E/DX2                !
 ! A2    A(1,2,3)              123.7981         estimate D2E/DX2                !
 ! A3    A(1,2,7)              115.1936         estimate D2E/DX2                !
 ! A4    A(3,2,7)              121.0083         estimate D2E/DX2                !
 ! A5    A(2,3,4)              118.2336         estimate D2E/DX2                !
 ! A6    A(2,3,8)              120.6505         estimate D2E/DX2                !
 ! A7    A(4,3,8)              121.1159         estimate D2E/DX2                !
 ! A8    A(3,4,5)              119.3166         estimate D2E/DX2                !
 ! A9    A(3,4,9)              120.3412         estimate D2E/DX2                !
 ! A10   A(5,4,9)              120.3423         estimate D2E/DX2                !
 ! A11   A(4,5,6)              118.2344         estimate D2E/DX2                !
 ! A12   A(4,5,10)             121.1158         estimate D2E/DX2                !
 ! A13   A(6,5,10)             120.6498         estimate D2E/DX2                !
 ! A14   A(1,6,5)              123.7977         estimate D2E/DX2                !
 ! A15   A(1,6,11)             115.1934         estimate D2E/DX2                !
 ! A16   A(5,6,11)             121.0088         estimate D2E/DX2                !
 ! D1    D(6,1,2,3)             -0.0106         estimate D2E/DX2                !
 ! D2    D(6,1,2,7)            179.9884         estimate D2E/DX2                !
 ! D3    D(2,1,6,5)             -0.0127         estimate D2E/DX2                !
 ! D4    D(2,1,6,11)           179.9855         estimate D2E/DX2                !
 ! D5    D(1,2,3,4)              0.0227         estimate D2E/DX2                !
 ! D6    D(1,2,3,8)           -179.9806         estimate D2E/DX2                !
 ! D7    D(7,2,3,4)           -179.9761         estimate D2E/DX2                !
 ! D8    D(7,2,3,8)              0.0205         estimate D2E/DX2                !
 ! D9    D(2,3,4,5)             -0.0119         estimate D2E/DX2                !
 ! D10   D(2,3,4,9)            179.9883         estimate D2E/DX2                !
 ! D11   D(8,3,4,5)            179.9914         estimate D2E/DX2                !
 ! D12   D(8,3,4,9)             -0.0083         estimate D2E/DX2                !
 ! D13   D(3,4,5,6)             -0.009          estimate D2E/DX2                !
 ! D14   D(3,4,5,10)           179.9947         estimate D2E/DX2                !
 ! D15   D(9,4,5,6)            179.9907         estimate D2E/DX2                !
 ! D16   D(9,4,5,10)            -0.0056         estimate D2E/DX2                !
 ! D17   D(4,5,6,1)              0.0224         estimate D2E/DX2                !
 ! D18   D(4,5,6,11)          -179.9757         estimate D2E/DX2                !
 ! D19   D(10,5,6,1)          -179.9814         estimate D2E/DX2                !
 ! D20   D(10,5,6,11)            0.0205         estimate D2E/DX2                !
 --------------------------------------------------------------------------------
 Trust Radius=3.00D-01 FncErr=1.00D-07 GrdErr=1.00D-07 EigMax=2.50D+02 EigMin=1.00D-04
 Number of steps in this run=     57 maximum allowed number of steps=    100.
 GradGradGradGradGradGradGradGradGradGradGradGradGradGradGradGradGradGrad

 Leave Link  103 at Tue Oct  1 22:19:49 2024, MaxMem=  4294967296 cpu:               0.1 elap:               0.0
 (Enter /gpfs1/apps/software/Gaussian16/AVX/g16/l202.exe)
                          Input orientation:                          
 ---------------------------------------------------------------------
 Center     Atomic      Atomic             Coordinates (Angstroms)
 Number     Number       Type             X           Y           Z
 ---------------------------------------------------------------------
      1          7           0       -1.360680   -0.048510    0.005140
      2          6           0       -0.692360    1.125480    0.003160
      3          6           0        0.689820    1.225680    0.000090
      4          6           0        1.434730    0.050980   -0.001510
      5          6           0        0.775220   -1.173690    0.000260
      6          6           0       -0.610580   -1.172020    0.003770
      7          1           0       -1.317750    2.013520    0.004120
      8          1           0        1.173560    2.195740   -0.001080
      9          1           0        2.520160    0.089620   -0.004110
     10          1           0        1.326700   -2.106910   -0.001000
     11          1           0       -1.171250   -2.102270    0.005660
 ---------------------------------------------------------------------
                    Distance matrix (angstroms):
                    1          2          3          4          5
     1  N    0.000000
     2  C    1.350892   0.000000
     3  C    2.414153   1.385811   0.000000
     4  C    2.797188   2.383083   1.390976   0.000000
     5  C    2.414151   2.727633   2.400889   1.390961   0.000000
     6  C    1.350898   2.298955   2.727640   2.383076   1.385805
     7  H    2.062477   1.086153   2.156628   3.380494   3.812984
     8  H    3.385125   2.151077   1.083984   2.160603   3.392895
     9  H    3.883308   3.375403   2.154250   1.086121   2.154249
    10  H    3.385123   3.811163   3.392900   2.160593   1.083989
    11  H    2.062478   3.263083   3.812986   3.380484   2.156626
                    6          7          8          9         10
     6  C    0.000000
     7  H    3.263090   0.000000
     8  H    3.811166   2.497971   0.000000
     9  H    3.375401   4.293135   2.499816   0.000000
    10  H    2.151069   4.896028   4.305374   2.499820   0.000000
    11  H    1.086149   4.118397   4.896026   4.293132   2.497963
                   11
    11  H    0.000000
 Stoichiometry    C5H5N
 Framework group  C1[X(C5H5N)]
 Deg. of freedom    27
 Full point group                 C1      NOp   1
 Largest Abelian subgroup         C1      NOp   1
 Largest concise Abelian subgroup C1      NOp   1
                         Standard orientation:                         
 ---------------------------------------------------------------------
 Center     Atomic      Atomic             Coordinates (Angstroms)
 Number     Number       Type             X           Y           Z
 ---------------------------------------------------------------------
      1          7           0       -0.000035   -1.423195   -0.000011
      2          6           0       -1.149493   -0.713509   -0.000105
      3          6           0       -1.200432    0.671365    0.000127
      4          6           0        0.000038    1.373993   -0.000009
      5          6           0        1.200457    0.671307   -0.000117
      6          6           0        1.149462   -0.713559    0.000109
      7          1           0       -2.059231   -1.306894   -0.000399
      8          1           0       -2.152659    1.189329    0.000353
      9          1           0        0.000058    2.460113   -0.000026
     10          1           0        2.152715    1.189222   -0.000310
     11          1           0        2.059166   -1.306988    0.000431
 ---------------------------------------------------------------------
 Rotational constants (GHZ):           6.0032390           5.8503451           2.9629030
 Leave Link  202 at Tue Oct  1 22:19:49 2024, MaxMem=  4294967296 cpu:               0.0 elap:               0.0
 (Enter /gpfs1/apps/software/Gaussian16/AVX/g16/l301.exe)
 Standard basis: STO-3G (5D, 7F)
 Ernie: Thresh=  0.10000D-02 Tol=  0.10000D-05 Strict=F.
 There are    35 symmetry adapted cartesian basis functions of A   symmetry.
 There are    35 symmetry adapted basis functions of A   symmetry.
    35 basis functions,   105 primitive gaussians,    35 cartesian basis functions
    21 alpha electrons       21 beta electrons
       nuclear repulsion energy       205.9416107576 Hartrees.
 IExCor=    0 DFT=F Ex=HF Corr=None ExCW=0 ScaHFX=  1.000000
 ScaDFX=  1.000000  1.000000  1.000000  1.000000 ScalE2=  1.000000  1.000000
 IRadAn=      5 IRanWt=     -1 IRanGd=            0 ICorTp=0 IEmpDi=  4
 NAtoms=   11 NActive=   11 NUniq=   11 SFac= 1.00D+00 NAtFMM=   60 NAOKFM=F Big=F
 Integral buffers will be    131072 words long.
 Raffenetti 1 integral format.
 Two-electron integral symmetry is turned on.
 Leave Link  301 at Tue Oct  1 22:19:49 2024, MaxMem=  4294967296 cpu:               0.6 elap:               0.0
 (Enter /gpfs1/apps/software/Gaussian16/AVX/g16/l302.exe)
 NPDir=0 NMtPBC=     1 NCelOv=     1 NCel=       1 NClECP=     1 NCelD=      1
         NCelK=      1 NCelE2=     1 NClLst=     1 CellRange=     0.0.
 One-electron integrals computed using PRISM.
 One-electron integral symmetry used in STVInt
 NBasis=    35 RedAO= T EigKep=  1.76D-01  NBF=    35
 NBsUse=    35 1.00D-06 EigRej= -1.00D+00 NBFU=    35
 Leave Link  302 at Tue Oct  1 22:19:49 2024, MaxMem=  4294967296 cpu:               1.4 elap:               0.1
 (Enter /gpfs1/apps/software/Gaussian16/AVX/g16/l303.exe)
 DipDrv:  MaxL=1.
 Leave Link  303 at Tue Oct  1 22:19:49 2024, MaxMem=  4294967296 cpu:               0.5 elap:               0.0
 (Enter /gpfs1/apps/software/Gaussian16/AVX/g16/l308.exe)
 Leave Link  308 at Tue Oct  1 22:19:49 2024, MaxMem=  4294967296 cpu:               0.5 elap:               0.0
 (Enter /gpfs1/apps/software/Gaussian16/AVX/g16/l401.exe)
 ExpMin= 1.69D-01 ExpMax= 9.91D+01 ExpMxC= 9.91D+01 IAcc=3 IRadAn=         5 AccDes= 0.00D+00
 Harris functional with IExCor=  205 and IRadAn=       5 diagonalized for initial guess.
 HarFok:  IExCor=  205 AccDes= 0.00D+00 IRadAn=         5 IDoV= 1 UseB2=F ITyADJ=14
 ICtDFT=  3500011 ScaDFX=  1.000000  1.000000  1.000000  1.000000
 FoFCou: FMM=F IPFlag=           0 FMFlag=      100000 FMFlg1=           0
         NFxFlg=           0 DoJE=T BraDBF=F KetDBF=T FulRan=T
         wScrn=  0.000000 ICntrl=       500 IOpCl=  0 I1Cent=   200000004 NGrid=           0
         NMat0=    1 NMatS0=      1 NMatT0=    0 NMatD0=    1 NMtDS0=    0 NMtDT0=    0
 Petite list used in FoFCou.
 Harris En= -243.880087140110    
 JPrj=0 DoOrth=F DoCkMO=F.
 Leave Link  401 at Tue Oct  1 22:19:49 2024, MaxMem=  4294967296 cpu:               2.2 elap:               0.1
 (Enter /gpfs1/apps/software/Gaussian16/AVX/g16/l502.exe)
 Keep R1 ints in memory in canonical form, NReq=3439887.
 FoFCou: FMM=F IPFlag=           0 FMFlag=           0 FMFlg1=           0
         NFxFlg=           0 DoJE=F BraDBF=F KetDBF=F FulRan=T
         wScrn=  0.000000 ICntrl=       600 IOpCl=  0 I1Cent=           0 NGrid=           0
         NMat0=    1 NMatS0=    630 NMatT0=    0 NMatD0=    1 NMtDS0=    0 NMtDT0=    0
 Symmetry not used in FoFCou.
 Two-electron integral symmetry not used.
 Closed shell SCF:
 Using DIIS extrapolation, IDIIS=  1040.
 NGot=  4294967296 LenX=  4294764521 LenY=  4294762855
 Requested convergence on RMS density matrix=1.00D-08 within 128 cycles.
 Requested convergence on MAX density matrix=1.00D-06.
 Requested convergence on             energy=1.00D-06.
 No special actions if energy rises.

 Cycle   1  Pass 1  IDiag  1:
 E= -243.580089577112    
 DIIS: error= 5.08D-02 at cycle   1 NSaved=   1.
 NSaved= 1 IEnMin= 1 EnMin= -243.580089577112     IErMin= 1 ErrMin= 5.08D-02
 ErrMax= 5.08D-02  0.00D+00 EMaxC= 1.00D-01 BMatC= 8.10D-02 BMatP= 8.10D-02
 IDIUse=3 WtCom= 4.92D-01 WtEn= 5.08D-01
 Coeff-Com:  0.100D+01
 Coeff-En:   0.100D+01
 Coeff:      0.100D+01
 Gap=     0.606 Goal=   None    Shift=    0.000
 GapD=    0.606 DampG=2.000 DampE=0.500 DampFc=1.0000 IDamp=-1.
 RMSDP=8.90D-03 MaxDP=7.96D-02              OVMax= 0.00D+00

 Cycle   2  Pass 1  IDiag  1:
 E= -243.635689140279     Delta-E=       -0.055599563167 Rises=F Damp=F
 DIIS: error= 8.73D-03 at cycle   2 NSaved=   2.
 NSaved= 2 IEnMin= 2 EnMin= -243.635689140279     IErMin= 2 ErrMin= 8.73D-03
 ErrMax= 8.73D-03  0.00D+00 EMaxC= 1.00D-01 BMatC= 1.98D-03 BMatP= 8.10D-02
 IDIUse=3 WtCom= 9.13D-01 WtEn= 8.73D-02
 Coeff-Com:  0.739D-02 0.993D+00
 Coeff-En:   0.000D+00 0.100D+01
 Coeff:      0.674D-02 0.993D+00
 Gap=     0.549 Goal=   None    Shift=    0.000
 RMSDP=2.37D-03 MaxDP=2.97D-02 DE=-5.56D-02 OVMax= 0.00D+00

 Cycle   3  Pass 1  IDiag  1:
 E= -243.637611650717     Delta-E=       -0.001922510438 Rises=F Damp=F
 DIIS: error= 4.08D-03 at cycle   3 NSaved=   3.
 NSaved= 3 IEnMin= 3 EnMin= -243.637611650717     IErMin= 3 ErrMin= 4.08D-03
 ErrMax= 4.08D-03  0.00D+00 EMaxC= 1.00D-01 BMatC= 4.87D-04 BMatP= 1.98D-03
 IDIUse=3 WtCom= 9.59D-01 WtEn= 4.08D-02
 Coeff-Com: -0.225D-01 0.314D+00 0.708D+00
 Coeff-En:   0.000D+00 0.000D+00 0.100D+01
 Coeff:     -0.216D-01 0.302D+00 0.720D+00
 Gap=     0.543 Goal=   None    Shift=    0.000
 RMSDP=8.83D-04 MaxDP=8.51D-03 DE=-1.92D-03 OVMax= 0.00D+00

 Cycle   4  Pass 1  IDiag  1:
 E= -243.638252023019     Delta-E=       -0.000640372301 Rises=F Damp=F
 DIIS: error= 6.01D-04 at cycle   4 NSaved=   4.
 NSaved= 4 IEnMin= 4 EnMin= -243.638252023019     IErMin= 4 ErrMin= 6.01D-04
 ErrMax= 6.01D-04  0.00D+00 EMaxC= 1.00D-01 BMatC= 5.16D-06 BMatP= 4.87D-04
 IDIUse=3 WtCom= 9.94D-01 WtEn= 6.01D-03
 Coeff-Com:  0.292D-02-0.711D-01-0.788D-01 0.115D+01
 Coeff-En:   0.000D+00 0.000D+00 0.000D+00 0.100D+01
 Coeff:      0.290D-02-0.706D-01-0.783D-01 0.115D+01
 Gap=     0.543 Goal=   None    Shift=    0.000
 RMSDP=1.45D-04 MaxDP=2.17D-03 DE=-6.40D-04 OVMax= 0.00D+00

 Cycle   5  Pass 1  IDiag  1:
 E= -243.638265430767     Delta-E=       -0.000013407748 Rises=F Damp=F
 DIIS: error= 1.09D-04 at cycle   5 NSaved=   5.
 NSaved= 5 IEnMin= 5 EnMin= -243.638265430767     IErMin= 5 ErrMin= 1.09D-04
 ErrMax= 1.09D-04  0.00D+00 EMaxC= 1.00D-01 BMatC= 6.27D-07 BMatP= 5.16D-06
 IDIUse=3 WtCom= 9.99D-01 WtEn= 1.09D-03
 Coeff-Com:  0.712D-03-0.791D-02-0.303D-01-0.453D-01 0.108D+01
 Coeff-En:   0.000D+00 0.000D+00 0.000D+00 0.000D+00 0.100D+01
 Coeff:      0.711D-03-0.790D-02-0.303D-01-0.453D-01 0.108D+01
 Gap=     0.543 Goal=   None    Shift=    0.000
 RMSDP=5.10D-05 MaxDP=5.89D-04 DE=-1.34D-05 OVMax= 0.00D+00

 Cycle   6  Pass 1  IDiag  1:
 E= -243.638267236719     Delta-E=       -0.000001805953 Rises=F Damp=F
 DIIS: error= 7.84D-05 at cycle   6 NSaved=   6.
 NSaved= 6 IEnMin= 6 EnMin= -243.638267236719     IErMin= 6 ErrMin= 7.84D-05
 ErrMax= 7.84D-05  0.00D+00 EMaxC= 1.00D-01 BMatC= 1.19D-07 BMatP= 6.27D-07
 IDIUse=1 WtCom= 1.00D+00 WtEn= 0.00D+00
 Coeff-Com: -0.395D-03 0.924D-02 0.107D-01-0.104D+00-0.353D+00 0.144D+01
 Coeff:     -0.395D-03 0.924D-02 0.107D-01-0.104D+00-0.353D+00 0.144D+01
 Gap=     0.543 Goal=   None    Shift=    0.000
 RMSDP=3.62D-05 MaxDP=4.99D-04 DE=-1.81D-06 OVMax= 0.00D+00

 Cycle   7  Pass 1  IDiag  1:
 E= -243.638267835177     Delta-E=       -0.000000598457 Rises=F Damp=F
 DIIS: error= 2.96D-05 at cycle   7 NSaved=   7.
 NSaved= 7 IEnMin= 7 EnMin= -243.638267835177     IErMin= 7 ErrMin= 2.96D-05
 ErrMax= 2.96D-05  0.00D+00 EMaxC= 1.00D-01 BMatC= 2.26D-08 BMatP= 1.19D-07
 IDIUse=1 WtCom= 1.00D+00 WtEn= 0.00D+00
 Coeff-Com:  0.137D-04-0.145D-02 0.212D-02 0.551D-01-0.269D+00-0.398D-01
 Coeff-Com:  0.125D+01
 Coeff:      0.137D-04-0.145D-02 0.212D-02 0.551D-01-0.269D+00-0.398D-01
 Coeff:      0.125D+01
 Gap=     0.543 Goal=   None    Shift=    0.000
 RMSDP=1.55D-05 MaxDP=1.93D-04 DE=-5.98D-07 OVMax= 0.00D+00

 Cycle   8  Pass 1  IDiag  1:
 E= -243.638267920057     Delta-E=       -0.000000084880 Rises=F Damp=F
 DIIS: error= 6.78D-06 at cycle   8 NSaved=   8.
 NSaved= 8 IEnMin= 8 EnMin= -243.638267920057     IErMin= 8 ErrMin= 6.78D-06
 ErrMax= 6.78D-06  0.00D+00 EMaxC= 1.00D-01 BMatC= 1.19D-09 BMatP= 2.26D-08
 IDIUse=1 WtCom= 1.00D+00 WtEn= 0.00D+00
 Coeff-Com:  0.206D-04-0.484D-04-0.145D-02-0.150D-01 0.109D+00 0.183D-01
 Coeff-Com: -0.724D+00 0.161D+01
 Coeff:      0.206D-04-0.484D-04-0.145D-02-0.150D-01 0.109D+00 0.183D-01
 Coeff:     -0.724D+00 0.161D+01
 Gap=     0.543 Goal=   None    Shift=    0.000
 RMSDP=3.78D-06 MaxDP=4.65D-05 DE=-8.49D-08 OVMax= 0.00D+00

 Cycle   9  Pass 1  IDiag  1:
 E= -243.638267924884     Delta-E=       -0.000000004827 Rises=F Damp=F
 DIIS: error= 1.29D-06 at cycle   9 NSaved=   9.
 NSaved= 9 IEnMin= 9 EnMin= -243.638267924884     IErMin= 9 ErrMin= 1.29D-06
 ErrMax= 1.29D-06  0.00D+00 EMaxC= 1.00D-01 BMatC= 6.24D-11 BMatP= 1.19D-09
 IDIUse=1 WtCom= 1.00D+00 WtEn= 0.00D+00
 Coeff-Com: -0.848D-06 0.531D-04 0.318D-04-0.175D-02 0.490D-02 0.176D-01
 Coeff-Com: -0.511D-01-0.505D-01 0.108D+01
 Coeff:     -0.848D-06 0.531D-04 0.318D-04-0.175D-02 0.490D-02 0.176D-01
 Coeff:     -0.511D-01-0.505D-01 0.108D+01
 Gap=     0.543 Goal=   None    Shift=    0.000
 RMSDP=5.47D-07 MaxDP=4.70D-06 DE=-4.83D-09 OVMax= 0.00D+00

 Cycle  10  Pass 1  IDiag  1:
 E= -243.638267925033     Delta-E=       -0.000000000149 Rises=F Damp=F
 DIIS: error= 5.31D-07 at cycle  10 NSaved=  10.
 NSaved=10 IEnMin=10 EnMin= -243.638267925033     IErMin=10 ErrMin= 5.31D-07
 ErrMax= 5.31D-07  0.00D+00 EMaxC= 1.00D-01 BMatC= 7.99D-12 BMatP= 6.24D-11
 IDIUse=1 WtCom= 1.00D+00 WtEn= 0.00D+00
 Coeff-Com: -0.321D-05 0.110D-04 0.266D-03 0.208D-02-0.179D-01 0.995D-03
 Coeff-Com:  0.100D+00-0.252D+00 0.787D-01 0.109D+01
 Coeff:     -0.321D-05 0.110D-04 0.266D-03 0.208D-02-0.179D-01 0.995D-03
 Coeff:      0.100D+00-0.252D+00 0.787D-01 0.109D+01
 Gap=     0.543 Goal=   None    Shift=    0.000
 RMSDP=2.54D-07 MaxDP=3.59D-06 DE=-1.49D-10 OVMax= 0.00D+00

 Cycle  11  Pass 1  IDiag  1:
 E= -243.638267925056     Delta-E=       -0.000000000023 Rises=F Damp=F
 DIIS: error= 6.10D-08 at cycle  11 NSaved=  11.
 NSaved=11 IEnMin=11 EnMin= -243.638267925056     IErMin=11 ErrMin= 6.10D-08
 ErrMax= 6.10D-08  0.00D+00 EMaxC= 1.00D-01 BMatC= 1.26D-13 BMatP= 7.99D-12
 IDIUse=1 WtCom= 1.00D+00 WtEn= 0.00D+00
 Coeff-Com:  0.117D-05-0.364D-05-0.996D-04-0.851D-03 0.716D-02-0.383D-03
 Coeff-Com: -0.409D-01 0.106D+00-0.715D-01-0.409D+00 0.141D+01
 Coeff:      0.117D-05-0.364D-05-0.996D-04-0.851D-03 0.716D-02-0.383D-03
 Coeff:     -0.409D-01 0.106D+00-0.715D-01-0.409D+00 0.141D+01
 Gap=     0.543 Goal=   None    Shift=    0.000
 RMSDP=2.68D-08 MaxDP=3.02D-07 DE=-2.33D-11 OVMax= 0.00D+00

 Cycle  12  Pass 1  IDiag  1:
 E= -243.638267925057     Delta-E=       -0.000000000001 Rises=F Damp=F
 DIIS: error= 5.35D-09 at cycle  12 NSaved=  12.
 NSaved=12 IEnMin=12 EnMin= -243.638267925057     IErMin=12 ErrMin= 5.35D-09
 ErrMax= 5.35D-09  0.00D+00 EMaxC= 1.00D-01 BMatC= 9.46D-16 BMatP= 1.26D-13
 IDIUse=1 WtCom= 1.00D+00 WtEn= 0.00D+00
 Coeff-Com: -0.237D-06 0.841D-06 0.202D-04 0.167D-03-0.143D-02 0.843D-04
 Coeff-Com:  0.816D-02-0.212D-01 0.144D-01 0.826D-01-0.332D+00 0.125D+01
 Coeff:     -0.237D-06 0.841D-06 0.202D-04 0.167D-03-0.143D-02 0.843D-04
 Coeff:      0.816D-02-0.212D-01 0.144D-01 0.826D-01-0.332D+00 0.125D+01
 Gap=     0.543 Goal=   None    Shift=    0.000
 RMSDP=2.72D-09 MaxDP=4.46D-08 DE=-6.25D-13 OVMax= 0.00D+00

 SCF Done:  E(RHF) =  -243.638267925     A.U. after   12 cycles
            NFock= 12  Conv=0.27D-08     -V/T= 2.0090
 KE= 2.414567063465D+02 PE=-9.800352180734D+02 EE= 2.889986330442D+02
 Leave Link  502 at Tue Oct  1 22:19:49 2024, MaxMem=  4294967296 cpu:               1.5 elap:               0.1
 (Enter /gpfs1/apps/software/Gaussian16/AVX/g16/l801.exe)
 ExpMin= 1.69D-01 ExpMax= 9.91D+01 ExpMxC= 9.91D+01 IAcc=3 IRadAn=         5 AccDes= 0.00D+00
 HarFok:  IExCor=  205 AccDes= 0.00D+00 IRadAn=         5 IDoV=-2 UseB2=F ITyADJ=14
 ICtDFT= 12500011 ScaDFX=  1.000000  1.000000  1.000000  1.000000
 Largest valence mixing into a core orbital is  1.88D-04
 Largest core mixing into a valence orbital is  2.82D-04
 Range of M.O.s used for correlation:     7    35
 NBasis=    35 NAE=    21 NBE=    21 NFC=     6 NFV=     0
 NROrb=     29 NOA=    15 NOB=    15 NVA=    14 NVB=    14
 Leave Link  801 at Tue Oct  1 22:19:49 2024, MaxMem=  4294967296 cpu:               0.9 elap:               0.1
 (Enter /gpfs1/apps/software/Gaussian16/AVX/g16/l914.exe)
 RHF ground state
 Keep R1, R2, and R3 ints in memory in canonical form, NReq=3837757.
 FoFCou: FMM=F IPFlag=           0 FMFlag=           0 FMFlg1=           0
         NFxFlg=           0 DoJE=F BraDBF=F KetDBF=F FulRan=T
         wScrn=  0.000000 ICntrl=       600 IOpCl=  0 I1Cent=           0 NGrid=           0
         NMat0=    1 NMatS0=    630 NMatT0=    0 NMatD0=    1 NMtDS0=    0 NMtDT0=    0
 Symmetry not used in FoFCou.
 Two-electron integral symmetry not used.
 MDV=  4294967296 DFT=F DoStab=F Mixed=F DoRPA=F DoScal=F NonHer=F
 Making orbital integer symmetry assigments:
 Orbital symmetries:
       Occupied  (A) (A) (A) (A) (A) (A) (A) (A) (A) (A) (A) (A)
                 (A) (A) (A) (A) (A) (A) (A) (A) (A)
       Virtual   (A) (A) (A) (A) (A) (A) (A) (A) (A) (A) (A) (A)
                 (A) (A)
    12 initial guesses have been made.
 Convergence on wavefunction:    0.001000000000000
 Davidson Disk Diagonalization:  ConvIn= 1.00D-03 SkipCon=T Conv= 1.00D-03.
 Max sub-space:   840 roots to seek:    12 dimension of matrix:          420
 Iteration     1 Dimension    12 NMult     0 NNew     12
 CISAX will form    12 AO SS matrices at one time.
 NMat=    12 NSing=    12 JSym2X= 0.
 New state      1 was old state      5
 New state      2 was old state      1
 New state      3 was old state      6
 Excitation Energies [eV] at current iteration:
 Root      1 :     7.014697175912942
 Root      2 :     7.799352633297339
 Root      3 :     8.535017025481766
 Root      4 :     9.471361636785185
 Root      5 :    11.299823829274628
 Root      6 :    11.641899043558853
 Root      7 :    11.995709961693583
 Root      8 :    12.250482128478708
 Root      9 :    12.559594298350859
 Root     10 :    13.586305650733669
 Root     11 :    14.176279282812732
 Root     12 :    14.339563504322511
 Iteration     2 Dimension    24 NMult    12 NNew     12
 CISAX will form    12 AO SS matrices at one time.
 NMat=    12 NSing=    12 JSym2X= 0.
 Root      1 not converged, maximum delta is    0.179045944255099
 Root      2 not converged, maximum delta is    0.019604375597563
 Root      3 not converged, maximum delta is    0.086459042871077
 Excitation Energies [eV] at current iteration:
 Root      1 :     6.173498435780536   Change is   -0.841198740132407
 Root      2 :     7.767339072783495   Change is   -0.032013560513844
 Root      3 :     8.214563632515668   Change is   -0.320453392966097
 Root      4 :     8.433541252953157   Change is   -1.037820383832028
 Root      5 :    10.420256599282476   Change is   -0.879567229992152
 Root      6 :    10.546954304118826   Change is   -1.448755657574759
 Root      7 :    10.741182232386249   Change is   -1.509299896092460
 Root      8 :    11.181348431198197   Change is   -0.460550612360656
 Root      9 :    11.702466635779997   Change is   -0.857127662570863
 Root     10 :    12.864964981092973   Change is   -0.721340669640696
 Root     11 :    13.233874935524222   Change is   -0.942404347288510
 Root     12 :    13.573262690803761   Change is   -0.766300813518750
 Iteration     3 Dimension    27 NMult    24 NNew      3
 CISAX will form     3 AO SS matrices at one time.
 NMat=     3 NSing=     3 JSym2X= 0.
 Root      1 not converged, maximum delta is    0.011088255802264
 Root      2 has converged.
 Root      3 not converged, maximum delta is    0.013116006422145
 Excitation Energies [eV] at current iteration:
 Root      1 :     6.156482517527166   Change is   -0.017015918253369
 Root      2 :     7.767048094158574   Change is   -0.000290978624920
 Root      3 :     8.208279441961722   Change is   -0.006284190553946
 Iteration     4 Dimension    29 NMult    27 NNew      2
 CISAX will form     2 AO SS matrices at one time.
 NMat=     2 NSing=     2 JSym2X= 0.
 Root      1 not converged, maximum delta is    0.006569469511844
 Root      2 has converged.
 Root      3 not converged, maximum delta is    0.002225672035675
 Excitation Energies [eV] at current iteration:
 Root      1 :     6.155045778208454   Change is   -0.001436739318712
 Root      2 :     7.767048093837655   Change is   -0.000000000320919
 Root      3 :     8.208005863896657   Change is   -0.000273578065065
 Iteration     5 Dimension    31 NMult    29 NNew      2
 CISAX will form     2 AO SS matrices at one time.
 NMat=     2 NSing=     2 JSym2X= 0.
 Root      1 not converged, maximum delta is    0.001224538672718
 Root      2 has converged.
 Root      3 has converged.
 Excitation Energies [eV] at current iteration:
 Root      1 :     6.154973273949759   Change is   -0.000072504258695
 Root      2 :     7.767048093742249   Change is   -0.000000000095405
 Root      3 :     8.207984352245250   Change is   -0.000021511651408
 Iteration     6 Dimension    32 NMult    31 NNew      1
 CISAX will form     1 AO SS matrices at one time.
 NMat=     1 NSing=     1 JSym2X= 0.
 Root      1 has converged.
 Root      2 has converged.
 Root      3 has converged.
 Excitation Energies [eV] at current iteration:
 Root      1 :     6.154970991643268   Change is   -0.000002282306490
 Root      2 :     7.767048093737726   Change is   -0.000000000004524
 Root      3 :     8.207984352244038   Change is   -0.000000000001211
 Convergence achieved on expansion vectors.
 ***********************************************************************
 Excited states from <AA,BB:AA,BB> singles matrix:
 ***********************************************************************
 
 1PDM for each excited state written to RWF  633
 Ground to excited state transition densities written to RWF  633
 Ground to excited state transition electric dipole moments (Au):
       state          X           Y           Z        Dip. S.      Osc.
         1        -0.0001      0.0000      0.2823      0.0797      0.0120
         2        -0.2843      0.0000     -0.0000      0.0808      0.0154
         3         0.0000      0.0002     -0.0000      0.0000      0.0000
 Ground to excited state transition velocity dipole moments (Au):
       state          X           Y           Z        Dip. S.      Osc.
         1        -0.0000     -0.0000     -0.1289      0.0166      0.0490
         2         0.0025     -0.0000      0.0000      0.0000      0.0000
         3        -0.0000     -0.0000     -0.0000      0.0000      0.0000
 Ground to excited state transition magnetic dipole moments (Au):
       state          X           Y           Z
         1         1.3018     -0.0001     -0.0001
         2        -0.0002      0.0000     -0.0901
         3        -0.0000     -0.0694      0.0000
 Ground to excited state transition velocity quadrupole moments (Au):
       state          XX          YY          ZZ          XY          XZ          YZ
         1         0.0000     -0.0000      0.0000      0.0001     -0.0000      0.2845
         2        -0.0000      0.0000      0.0000     -0.0130      0.0000      0.0000
         3        -0.0004      0.0007      0.0001     -0.0000     -0.0836      0.0000
 <0|del|b> * <b|rxdel|0> + <0|del|b> * <b|delr+rdel|0>
 Rotatory Strengths (R) in cgs (10**-40 erg-esu-cm/Gauss)
       state          XX          YY          ZZ    R(velocity)    E-M Angle
         1        -0.0031      0.0232     -0.0128      0.0024       90.00
         2        -0.0018     -0.0019     -0.0006     -0.0014       90.00
         3        -0.0005      0.0000      0.0052      0.0016       90.00
 1/2[<0|r|b>*<b|rxdel|0> + (<0|rxdel|b>*<b|r|0>)*]
 Rotatory Strengths (R) in cgs (10**-40 erg-esu-cm/Gauss)
       state          XX          YY          ZZ     R(length)
         1         0.1236      0.0000      0.0199      0.0478
         2        -0.0366     -0.0000     -0.0016     -0.0127
         3         0.0000      0.0111      0.0000      0.0037
  1/2[<0|del|b>*<b|r|0> + (<0|r|b>*<b|del|0>)*] (Au)
       state          X           Y           Z        Dip. S.   Osc.(frdel)
         1         0.0000     -0.0000     -0.0364      0.0364      0.0243
         2        -0.0007     -0.0000     -0.0000      0.0007      0.0005
         3        -0.0000     -0.0000      0.0000      0.0000      0.0000

 Excitation energies and oscillator strengths:
 
 Excited State   1:      Singlet-A      6.1550 eV  201.44 nm  f=0.0120  <S**2>=0.000
      19 -> 22         0.66316
      19 -> 24         0.20825
 This state for optimization and/or second-order correction.
 Total Energy, E(CIS/TDA) =  -243.412076903    
 Copying the excited state density for this state as the 1-particle RhoCI density.
 
 Excited State   2:      Singlet-A      7.7670 eV  159.63 nm  f=0.0154  <S**2>=0.000
      20 -> 23        -0.43804
      21 -> 22         0.55425
 
 Excited State   3:      Singlet-A      8.2080 eV  151.05 nm  f=0.0000  <S**2>=0.000
      19 -> 23         0.69145
 SavETr:  write IOETrn=   770 NScale= 10 NData=  16 NLR=1 NState=    3 LETran=      64.
 Leave Link  914 at Tue Oct  1 22:19:49 2024, MaxMem=  4294967296 cpu:               1.7 elap:               0.1
 (Enter /gpfs1/apps/software/Gaussian16/AVX/g16/l801.exe)
 Windowed orbitals will be sorted by symmetry type.
 Range of M.O.s used for correlation:     7    35
 NBasis=    35 NAE=    21 NBE=    21 NFC=     6 NFV=     0
 NROrb=     29 NOA=    15 NOB=    15 NVA=    14 NVB=    14
 MOs do not have abelian symmetry and doing EOM, so symmetry turned off.
 Leave Link  801 at Tue Oct  1 22:19:49 2024, MaxMem=  4294967296 cpu:               0.5 elap:               0.0
 (Enter /gpfs1/apps/software/Gaussian16/AVX/g16/l804.exe)
 Closed-shell transformation, MDV=  4294967296 ITran=4 ISComp=1.
 Semi-Direct transformation.
 ModeAB=           2 MOrb=            15 LenV=    4294821684
 LASXX=       100380 LTotXX=      100380 LenRXX=      100380
 LTotAB=      118350 MaxLAS=      274050 LenRXY=      274050
 NonZer=      285795 LenScr=      786432 LnRSAI=           0
 LnScr1=           0 LExtra=           0 Total=      1160862
 MaxDsk=          -1 SrtSym=           F ITran=            4
 DoSDTr:  NPSUse= 16
 JobTyp=0 Pass  1:  I=   1 to  15.
 (rs|ai) integrals will be sorted in core.
 Complete sort for first half transformation.
 First half transformation complete.
 Begin second half transformation for I=  10.
 Begin second half transformation for I=  10.
 Complete sort for second half transformation.
 Second half transformation complete.
 Spin components of T(2) and E(2):
     alpha-alpha T2 =       0.1820543060D-01 E2=     -0.3701663715D-01
     alpha-beta  T2 =       0.1287535206D+00 E2=     -0.2732390243D+00
     beta-beta   T2 =       0.1820543060D-01 E2=     -0.3701663715D-01
 ANorm=    0.1079427803D+01
 E2 =    -0.3472722986D+00 EUMP2 =    -0.24398554022365D+03
 Leave Link  804 at Tue Oct  1 22:19:50 2024, MaxMem=  4294967296 cpu:               7.5 elap:               0.5
 (Enter /gpfs1/apps/software/Gaussian16/AVX/g16/l913.exe)
 CIDS:  MDV=  4294967296.
 Frozen-core window:  NFC=   6 NFV=   0.
 IFCWin=0 IBDFC=1 NFBD=     0     0 NFCmp=     0     0 NFFFC=     0     0
 Using DD3R+UMP44R for 1st iteration.
 Using DD4RQ for 2nd and later iterations.
 Keep R2 and R3 ints in memory in canonical form, NReq=3641699.
 FoFCou: FMM=F IPFlag=           0 FMFlag=           0 FMFlg1=           0
         NFxFlg=           0 DoJE=F BraDBF=F KetDBF=F FulRan=T
         wScrn=  0.000000 ICntrl=       600 IOpCl=  0 I1Cent=           0 NGrid=           0
         NMat0=    1 NMatS0=    630 NMatT0=    0 NMatD0=    1 NMtDS0=    0 NMtDT0=    0
 Symmetry not used in FoFCou.
 Two-electron integral symmetry not used.
 CIDS: In Core Option IDoMem=           1.
 Coupled Cluster theory with single and double substitutions
 ===========================================================
 Iterations=  50 Convergence= 0.100D-07
 Produce multiple copies of IABC intergrals
 Iteration Nr.   1
 **********************
 DD1Dir will call FoFMem   1 times, MxPair=       240
 NAB=   120 NAA=     0 NBB=     0.
 MP4(R+Q)=  0.72718141D-02
 Maximum subspace dimension=  5
 A-vector RMS=  3.7685001D-03 Max=  1.9292703D-02 conv= 1.00D-06.
 RLE energy=       -0.3896934099
 E3=       -0.45115746D-01        EUMP3=      -0.24403065597D+03
 E4(DQ)=   -0.11424740D-01        UMP4(DQ)=   -0.24404208071D+03
 E4(SDQ)=  -0.12521188D-01        UMP4(SDQ)=  -0.24404317716D+03
 VARIATIONAL ENERGIES WITH THE FIRST-ORDER WAVEFUNCTION:
 DE(Corr)= -0.38507555     E(Corr)=     -244.02334348    
 NORM(A)=   0.11022268D+01
 Iteration Nr.   2
 **********************
 DD1Dir will call FoFMem   1 times, MxPair=       240
 NAB=   120 NAA=     0 NBB=     0.
 A-vector RMS=  9.4167346D-04 Max=  1.5551757D-02 conv= 1.00D-06.
 RLE energy=       -0.4114301192
 DE(Corr)= -0.40376413     E(CORR)=     -244.04203205     Delta=-1.87D-02
 NORM(A)=   0.11198739D+01
 Iteration Nr.   3
 **********************
 DD1Dir will call FoFMem   1 times, MxPair=       240
 NAB=   120 NAA=     0 NBB=     0.
 A-vector RMS=  5.2611744D-04 Max=  5.5281740D-03 conv= 1.00D-06.
 RLE energy=       -0.4145254545
 DE(Corr)= -0.41139085     E(CORR)=     -244.04965878     Delta=-7.63D-03
 NORM(A)=   0.11263981D+01
 Iteration Nr.   4
 **********************
 DD1Dir will call FoFMem   1 times, MxPair=       240
 NAB=   120 NAA=     0 NBB=     0.
 A-vector RMS=  2.0001536D-04 Max=  2.5907682D-03 conv= 1.00D-06.
 RLE energy=       -0.4154618759
 DE(Corr)= -0.41478812     E(CORR)=     -244.05305605     Delta=-3.40D-03
 NORM(A)=   0.11288757D+01
 Iteration Nr.   5
 **********************
 DD1Dir will call FoFMem   1 times, MxPair=       240
 NAB=   120 NAA=     0 NBB=     0.
 A-vector RMS=  7.3745350D-05 Max=  3.6253017D-04 conv= 1.00D-06.
 RLE energy=       -0.4154653104
 DE(Corr)= -0.41540677     E(CORR)=     -244.05367470     Delta=-6.19D-04
 NORM(A)=   0.11291480D+01
 Iteration Nr.   6
 **********************
 DD1Dir will call FoFMem   1 times, MxPair=       240
 NAB=   120 NAA=     0 NBB=     0.
 A-vector RMS=  1.9642473D-05 Max=  1.0071497D-04 conv= 1.00D-06.
 RLE energy=       -0.4154237467
 DE(Corr)= -0.41544779     E(CORR)=     -244.05371571     Delta=-4.10D-05
 NORM(A)=   0.11291510D+01
 Iteration Nr.   7
 **********************
 DD1Dir will call FoFMem   1 times, MxPair=       240
 NAB=   120 NAA=     0 NBB=     0.
 A-vector RMS=  8.2646903D-06 Max=  3.8193245D-05 conv= 1.00D-06.
 RLE energy=       -0.4154453274
 DE(Corr)= -0.41544479     E(CORR)=     -244.05371271     Delta= 3.00D-06
 NORM(A)=   0.11291696D+01
 Iteration Nr.   8
 **********************
 DD1Dir will call FoFMem   1 times, MxPair=       240
 NAB=   120 NAA=     0 NBB=     0.
 A-vector RMS=  2.5117920D-06 Max=  9.5987144D-06 conv= 1.00D-06.
 RLE energy=       -0.4154447804
 DE(Corr)= -0.41544517     E(CORR)=     -244.05371310     Delta=-3.89D-07
 NORM(A)=   0.11291699D+01
 Iteration Nr.   9
 **********************
 DD1Dir will call FoFMem   1 times, MxPair=       240
 NAB=   120 NAA=     0 NBB=     0.
 A-vector RMS=  7.1549029D-07 Max=  4.4754213D-06 conv= 1.00D-06.
 RLE energy=       -0.4154473086
 DE(Corr)= -0.41544686     E(CORR)=     -244.05371478     Delta=-1.68D-06
 NORM(A)=   0.11291720D+01
 Iteration Nr.  10
 **********************
 DD1Dir will call FoFMem   1 times, MxPair=       240
 NAB=   120 NAA=     0 NBB=     0.
 A-vector RMS=  3.3759882D-07 Max=  1.9824085D-06 conv= 1.00D-06.
 RLE energy=       -0.4154481298
 DE(Corr)= -0.41544773     E(CORR)=     -244.05371566     Delta=-8.79D-07
 NORM(A)=   0.11291732D+01
 Iteration Nr.  11
 **********************
 DD1Dir will call FoFMem   1 times, MxPair=       240
 NAB=   120 NAA=     0 NBB=     0.
 A-vector RMS=  9.2650854D-08 Max=  1.2513927D-06 conv= 1.00D-06.
 RLE energy=       -0.4154485542
 DE(Corr)= -0.41544829     E(CORR)=     -244.05371622     Delta=-5.60D-07
 NORM(A)=   0.11291741D+01
 Iteration Nr.  12
 **********************
 DD1Dir will call FoFMem   1 times, MxPair=       240
 NAB=   120 NAA=     0 NBB=     0.
 A-vector RMS=  5.2058885D-08 Max=  4.6468054D-07 conv= 1.00D-06.
 RLE energy=       -0.4154487236
 DE(Corr)= -0.41544860     E(CORR)=     -244.05371652     Delta=-3.02D-07
 NORM(A)=   0.11291745D+01
 Iteration Nr.  13
 **********************
 DD1Dir will call FoFMem   1 times, MxPair=       240
 NAB=   120 NAA=     0 NBB=     0.
 A-vector RMS=  1.1439243D-08 Max=  1.5384591D-07 conv= 1.00D-06.
 RLE energy=       -0.4154487499
 DE(Corr)= -0.41544872     E(CORR)=     -244.05371665     Delta=-1.26D-07
 NORM(A)=   0.11291746D+01
 Iteration Nr.  14
 **********************
 DD1Dir will call FoFMem   1 times, MxPair=       240
 NAB=   120 NAA=     0 NBB=     0.
 A-vector RMS=  6.4195432D-09 Max=  4.6565171D-08 conv= 1.00D-06.
 RLE energy=       -0.4154487604
 DE(Corr)= -0.41544875     E(CORR)=     -244.05371668     Delta=-2.96D-08
 NORM(A)=   0.11291746D+01
 Iteration Nr.  15
 **********************
 DD1Dir will call FoFMem   1 times, MxPair=       240
 NAB=   120 NAA=     0 NBB=     0.
 A-vector RMS=  2.6021801D-09 Max=  1.2708350D-08 conv= 1.00D-06.
 RLE energy=       -0.4154487616
 DE(Corr)= -0.41544876     E(CORR)=     -244.05371669     Delta=-8.00D-09
 NORM(A)=   0.11291746D+01
 CI/CC converged in   15 iterations to DelEn=-8.00D-09 Conv= 1.00D-08 ErrA1= 2.60D-09 Conv= 1.00D-06
 Wavefunction amplitudes converged. E(Corr)=     -244.05371669    
 Dominant configurations:
 ***********************
 Spin Case        I    J    A    B          Value
   ABAB          20   20   22   22      -0.151399D+00
   ABAB          21   21   23   23      -0.148842D+00
 Largest amplitude= 1.51D-01

 Z-amplitude iterations

 Iteration Nr.   1
 **********************
 DD1Dir will call FoFMem   1 times, MxPair=       240
 NAB=   120 NAA=     0 NBB=     0.
 A-vector RMS=  1.5567982D-03 Max=  7.7054896D-03 conv= 1.00D-06.
 RLE energy=       -0.4154499909
 DE(Z)= -0.40004581     E(Z)=     -244.03831373     Delta= 1.54D-02
 NORM(A)=   0.11291754D+01
 Iteration Nr.   2
 **********************
 DD1Dir will call FoFMem   1 times, MxPair=       240
 NAB=   120 NAA=     0 NBB=     0.
 A-vector RMS=  1.5569084D-03 Max=  7.7060816D-03 conv= 1.00D-06.
 RLE energy=       -0.4154505744
 DE(Z)= -0.40004589     E(Z)=     -244.03831382     Delta=-8.49D-08
 NORM(A)=   0.11291757D+01
 Iteration Nr.   3
 **********************
 DD1Dir will call FoFMem   1 times, MxPair=       240
 NAB=   120 NAA=     0 NBB=     0.
 A-vector RMS=  1.5569635D-03 Max=  7.7063543D-03 conv= 1.00D-06.
 RLE energy=       -0.4154513571
 DE(Z)= -0.40004589     E(Z)=     -244.03831382     Delta= 1.80D-10
 NORM(A)=   0.11291762D+01
 Iteration Nr.   4
 **********************
 DD1Dir will call FoFMem   1 times, MxPair=       240
 NAB=   120 NAA=     0 NBB=     0.
 A-vector RMS=  1.5570532D-03 Max=  7.7067478D-03 conv= 1.00D-06.
 RLE energy=       -0.4154536696
 DE(Z)= -0.40004591     E(Z)=     -244.03831383     Delta=-1.45D-08
 NORM(A)=   0.11291775D+01
 Iteration Nr.   5
 **********************
 DD1Dir will call FoFMem   1 times, MxPair=       240
 NAB=   120 NAA=     0 NBB=     0.
 A-vector RMS=  1.5572772D-03 Max=  7.7078619D-03 conv= 1.00D-06.
 RLE energy=       -0.3995255973
 DE(Z)= -0.40004598     E(Z)=     -244.03831390     Delta=-6.93D-08
 NORM(A)=   0.11203002D+01
 Iteration Nr.   6
 **********************
 DD1Dir will call FoFMem   1 times, MxPair=       240
 NAB=   120 NAA=     0 NBB=     0.
 A-vector RMS=  2.5562702D-06 Max=  1.9258116D-05 conv= 1.00D-06.
 RLE energy=       -0.3995337356
 DE(Z)= -0.39952515     E(Z)=     -244.03779308     Delta= 5.21D-04
 NORM(A)=   0.11203357D+01
 Iteration Nr.   7
 **********************
 DD1Dir will call FoFMem   1 times, MxPair=       240
 NAB=   120 NAA=     0 NBB=     0.
 A-vector RMS=  2.4881699D-06 Max=  9.0700818D-06 conv= 1.00D-06.
 RLE energy=       -0.3995286632
 DE(Z)= -0.39953212     E(Z)=     -244.03780004     Delta=-6.97D-06
 NORM(A)=   0.11203236D+01
 Iteration Nr.   8
 **********************
 DD1Dir will call FoFMem   1 times, MxPair=       240
 NAB=   120 NAA=     0 NBB=     0.
 A-vector RMS=  6.0951536D-07 Max=  2.8644515D-06 conv= 1.00D-06.
 RLE energy=       -0.3995280086
 DE(Z)= -0.39952856     E(Z)=     -244.03779648     Delta= 3.56D-06
 NORM(A)=   0.11203236D+01
 Iteration Nr.   9
 **********************
 DD1Dir will call FoFMem   1 times, MxPair=       240
 NAB=   120 NAA=     0 NBB=     0.
 A-vector RMS=  5.8578556D-07 Max=  2.8965306D-06 conv= 1.00D-06.
 RLE energy=       -0.3995288380
 DE(Z)= -0.39952849     E(Z)=     -244.03779642     Delta= 6.20D-08
 NORM(A)=   0.11203249D+01
 Iteration Nr.  10
 **********************
 DD1Dir will call FoFMem   1 times, MxPair=       240
 NAB=   120 NAA=     0 NBB=     0.
 A-vector RMS=  2.0925253D-07 Max=  1.0966292D-06 conv= 1.00D-06.
 RLE energy=       -0.3995287590
 DE(Z)= -0.39952874     E(Z)=     -244.03779666     Delta=-2.40D-07
 NORM(A)=   0.11203251D+01
 Iteration Nr.  11
 **********************
 DD1Dir will call FoFMem   1 times, MxPair=       240
 NAB=   120 NAA=     0 NBB=     0.
 A-vector RMS=  2.2964390D-08 Max=  1.9471391D-07 conv= 1.00D-06.
 RLE energy=       -0.3995288067
 DE(Z)= -0.39952878     E(Z)=     -244.03779670     Delta=-4.40D-08
 NORM(A)=   0.11203252D+01
 Iteration Nr.  12
 **********************
 DD1Dir will call FoFMem   1 times, MxPair=       240
 NAB=   120 NAA=     0 NBB=     0.
 A-vector RMS=  8.9335922D-09 Max=  3.2127383D-08 conv= 1.00D-06.
 RLE energy=       -0.3995288053
 DE(Z)= -0.39952880     E(Z)=     -244.03779673     Delta=-2.30D-08
 NORM(A)=   0.11203252D+01
 Iteration Nr.  13
 **********************
 DD1Dir will call FoFMem   1 times, MxPair=       240
 NAB=   120 NAA=     0 NBB=     0.
 A-vector RMS=  3.4583727D-09 Max=  2.2936422D-08 conv= 1.00D-06.
 RLE energy=       -0.3995287991
 DE(Z)= -0.39952880     E(Z)=     -244.03779673     Delta= 8.72D-10
 NORM(A)=   0.11203252D+01
 CI/CC converged in   13 iterations to DelEn= 8.72D-10 Conv= 1.00D-08 ErrA1= 3.46D-09 Conv= 1.00D-06
 Z-amplitudes converged.

 ======================================

                EOM-CCSD               

 ======================================

 Processing Closed Shell Singlets

 *****************************************************
 Starting Irrep 1
 Dimension of the space: 
 Singles AA=     210, Singles BB=     210, Doubles AA=       9555,
 Doubles AB=       44100, Doubles BB=       9555, Total=       44310
 EnOnly = F DoTwo = F, DoSame = F, DoRgt = T, DoLft = F, DoTrip = F,
 MSek =   2, InMSek =   2, MConv =   2, MaxMI =   40, Conv =  1.00D-06

 Right Eigenvector.

 Vector Nr.   1
 **********************
 DD1Dir will call FoFMem   1 times, MxPair=       240
 NAB=   120 NAA=     0 NBB=     0.
 Vector Nr.   2
 **********************
 DD1Dir will call FoFMem   1 times, MxPair=       240
 NAB=   120 NAA=     0 NBB=     0.
 Actual subspace dimension: NDim=   2, NOld=   0, NNew=   2
 Right eigenvalues (eV) at iteration    1
 Root  1 =    8.365468208323
 Root  2 =   10.792081007168
 Norms of the Right Residuals
 Root I=  1 Norm= 3.83D-01 Max= 8.67D-02
 Root I=  2 Norm= 5.20D-01 Max= 9.99D-02
 New vectors created:   2

 Right Eigenvector.

 Vector Nr.   3
 **********************
 DD1Dir will call FoFMem   1 times, MxPair=       240
 NAB=   120 NAA=     0 NBB=     0.
 Vector Nr.   4
 **********************
 DD1Dir will call FoFMem   1 times, MxPair=       240
 NAB=   120 NAA=     0 NBB=     0.
 Actual subspace dimension: NDim=   4, NOld=   2, NNew=   2
 Right eigenvalues (eV) at iteration    2
 Root  1 =    5.931693493317
 Root  2 =    6.185833129108
 Norms of the Right Residuals
 Root I=  1 Norm= 1.28D-01 Max= 3.99D-02
 Root I=  2 Norm= 1.03D-01 Max= 9.68D-03
 New vectors created:   2

 Right Eigenvector.

 Vector Nr.   5
 **********************
 DD1Dir will call FoFMem   1 times, MxPair=       240
 NAB=   120 NAA=     0 NBB=     0.
 Vector Nr.   6
 **********************
 DD1Dir will call FoFMem   1 times, MxPair=       240
 NAB=   120 NAA=     0 NBB=     0.
 Actual subspace dimension: NDim=   6, NOld=   4, NNew=   2
 Right eigenvalues (eV) at iteration    3
 Root  1 =    5.665122606136
 Root  2 =    6.134649908175
 Norms of the Right Residuals
 Root I=  1 Norm= 8.27D-02 Max= 1.99D-02
 Root I=  2 Norm= 3.30D-02 Max= 4.36D-03
 New vectors created:   2

 Right Eigenvector.

 Vector Nr.   7
 **********************
 DD1Dir will call FoFMem   1 times, MxPair=       240
 NAB=   120 NAA=     0 NBB=     0.
 Vector Nr.   8
 **********************
 DD1Dir will call FoFMem   1 times, MxPair=       240
 NAB=   120 NAA=     0 NBB=     0.
 Actual subspace dimension: NDim=   8, NOld=   6, NNew=   2
 Right eigenvalues (eV) at iteration    4
 Root  1 =    5.587278699596
 Root  2 =    6.149939115287
 Norms of the Right Residuals
 Root I=  1 Norm= 3.12D-02 Max= 5.32D-03
 Root I=  2 Norm= 1.15D-02 Max= 2.76D-03
 New vectors created:   2

 Right Eigenvector.

 Vector Nr.   9
 **********************
 DD1Dir will call FoFMem   1 times, MxPair=       240
 NAB=   120 NAA=     0 NBB=     0.
 Vector Nr.  10
 **********************
 DD1Dir will call FoFMem   1 times, MxPair=       240
 NAB=   120 NAA=     0 NBB=     0.
 Actual subspace dimension: NDim=  10, NOld=   8, NNew=   2
 Right eigenvalues (eV) at iteration    5
 Root  1 =    5.566427712960
 Root  2 =    6.152889458482
 Norms of the Right Residuals
 Root I=  1 Norm= 1.23D-02 Max= 1.48D-03
 Root I=  2 Norm= 5.01D-03 Max= 6.83D-04
 New vectors created:   2

 Right Eigenvector.

 Vector Nr.  11
 **********************
 DD1Dir will call FoFMem   1 times, MxPair=       240
 NAB=   120 NAA=     0 NBB=     0.
 Vector Nr.  12
 **********************
 DD1Dir will call FoFMem   1 times, MxPair=       240
 NAB=   120 NAA=     0 NBB=     0.
 Actual subspace dimension: NDim=  12, NOld=  10, NNew=   2
 Right eigenvalues (eV) at iteration    6
 Root  1 =    5.562113119334
 Root  2 =    6.150409288857
 Norms of the Right Residuals
 Root I=  1 Norm= 4.73D-03 Max= 8.61D-04
 Root I=  2 Norm= 2.39D-03 Max= 3.55D-04
 New vectors created:   2

 Right Eigenvector.

 Vector Nr.  13
 **********************
 DD1Dir will call FoFMem   1 times, MxPair=       240
 NAB=   120 NAA=     0 NBB=     0.
 Vector Nr.  14
 **********************
 DD1Dir will call FoFMem   1 times, MxPair=       240
 NAB=   120 NAA=     0 NBB=     0.
 Actual subspace dimension: NDim=  14, NOld=  12, NNew=   2
 Right eigenvalues (eV) at iteration    7
 Root  1 =    5.560242282234
 Root  2 =    6.148826754876
 Norms of the Right Residuals
 Root I=  1 Norm= 1.76D-03 Max= 2.16D-04
 Root I=  2 Norm= 9.62D-04 Max= 6.51D-05
 New vectors created:   2

 Right Eigenvector.

 Vector Nr.  15
 **********************
 DD1Dir will call FoFMem   1 times, MxPair=       240
 NAB=   120 NAA=     0 NBB=     0.
 Vector Nr.  16
 **********************
 DD1Dir will call FoFMem   1 times, MxPair=       240
 NAB=   120 NAA=     0 NBB=     0.
 Actual subspace dimension: NDim=  16, NOld=  14, NNew=   2
 Right eigenvalues (eV) at iteration    8
 Root  1 =    5.559954924975
 Root  2 =    6.148923564841
 Norms of the Right Residuals
 Root I=  1 Norm= 7.34D-04 Max= 9.10D-05
 Root I=  2 Norm= 3.07D-04 Max= 3.12D-05
 New vectors created:   2

 Right Eigenvector.

 Vector Nr.  17
 **********************
 DD1Dir will call FoFMem   1 times, MxPair=       240
 NAB=   120 NAA=     0 NBB=     0.
 Vector Nr.  18
 **********************
 DD1Dir will call FoFMem   1 times, MxPair=       240
 NAB=   120 NAA=     0 NBB=     0.
 Actual subspace dimension: NDim=  18, NOld=  16, NNew=   2
 Right eigenvalues (eV) at iteration    9
 Root  1 =    5.559900420768
 Root  2 =    6.148985425087
 Norms of the Right Residuals
 Root I=  1 Norm= 2.90D-04 Max= 4.57D-05
 Root I=  2 Norm= 1.07D-04 Max= 1.01D-05
 New vectors created:   2

 Right Eigenvector.

 Vector Nr.  19
 **********************
 DD1Dir will call FoFMem   1 times, MxPair=       240
 NAB=   120 NAA=     0 NBB=     0.
 Vector Nr.  20
 **********************
 DD1Dir will call FoFMem   1 times, MxPair=       240
 NAB=   120 NAA=     0 NBB=     0.
 Actual subspace dimension: NDim=  20, NOld=  18, NNew=   2
 Right eigenvalues (eV) at iteration   10
 Root  1 =    5.559852182342
 Root  2 =    6.148997115909
 Norms of the Right Residuals
 Root I=  1 Norm= 1.25D-04 Max= 1.75D-05
 Root I=  2 Norm= 3.82D-05 Max= 4.40D-06
 New vectors created:   2

 Right Eigenvector.

 Vector Nr.  21
 **********************
 DD1Dir will call FoFMem   1 times, MxPair=       240
 NAB=   120 NAA=     0 NBB=     0.
 Vector Nr.  22
 **********************
 DD1Dir will call FoFMem   1 times, MxPair=       240
 NAB=   120 NAA=     0 NBB=     0.
 Actual subspace dimension: NDim=  22, NOld=  20, NNew=   2
 Right eigenvalues (eV) at iteration   11
 Root  1 =    5.559807945390
 Root  2 =    6.149003307629
 Norms of the Right Residuals
 Root I=  1 Norm= 4.65D-05 Max= 5.97D-06
 Root I=  2 Norm= 1.34D-05 Max= 1.57D-06
 New vectors created:   2

 Right Eigenvector.

 Vector Nr.  23
 **********************
 DD1Dir will call FoFMem   1 times, MxPair=       240
 NAB=   120 NAA=     0 NBB=     0.
 Vector Nr.  24
 **********************
 DD1Dir will call FoFMem   1 times, MxPair=       240
 NAB=   120 NAA=     0 NBB=     0.
 Actual subspace dimension: NDim=  24, NOld=  22, NNew=   2
 Right eigenvalues (eV) at iteration   12
 Root  1 =    5.559787790328
 Root  2 =    6.149004402206
 Norms of the Right Residuals
 Root I=  1 Norm= 1.90D-05 Max= 2.59D-06
 Root I=  2 Norm= 6.41D-06 Max= 9.04D-07
 New vectors created:   2

 Right Eigenvector.

 Vector Nr.  25
 **********************
 DD1Dir will call FoFMem   1 times, MxPair=       240
 NAB=   120 NAA=     0 NBB=     0.
 Vector Nr.  26
 **********************
 DD1Dir will call FoFMem   1 times, MxPair=       240
 NAB=   120 NAA=     0 NBB=     0.
 Actual subspace dimension: NDim=  26, NOld=  24, NNew=   2
 Right eigenvalues (eV) at iteration   13
 Root  1 =    5.559783437876
 Root  2 =    6.149003716473
 Norms of the Right Residuals
 Root I=  1 Norm= 8.95D-06 Max= 1.14D-06
 Root I=  2 Norm= 3.06D-06 Max= 6.46D-07
 New vectors created:   2

 Right Eigenvector.

 Vector Nr.  27
 **********************
 DD1Dir will call FoFMem   1 times, MxPair=       240
 NAB=   120 NAA=     0 NBB=     0.
 Vector Nr.  28
 **********************
 DD1Dir will call FoFMem   1 times, MxPair=       240
 NAB=   120 NAA=     0 NBB=     0.
 Actual subspace dimension: NDim=  28, NOld=  26, NNew=   2
 Right eigenvalues (eV) at iteration   14
 Root  1 =    5.559783228705
 Root  2 =    6.149003546916
 Norms of the Right Residuals
 Root I=  1 Norm= 3.83D-06 Max= 4.92D-07
 Root I=  2 Norm= 1.73D-06 Max= 2.03D-07
 New vectors created:   2

 Right Eigenvector.

 Vector Nr.  29
 **********************
 DD1Dir will call FoFMem   1 times, MxPair=       240
 NAB=   120 NAA=     0 NBB=     0.
 Vector Nr.  30
 **********************
 DD1Dir will call FoFMem   1 times, MxPair=       240
 NAB=   120 NAA=     0 NBB=     0.
 Actual subspace dimension: NDim=  30, NOld=  28, NNew=   2
 Right eigenvalues (eV) at iteration   15
 Root  1 =    5.559782343568
 Root  2 =    6.149003673122
 Norms of the Right Residuals
 Root I=  1 Norm= 1.49D-06 Max= 1.47D-07
 Root I=  2 Norm= 6.59D-07 Max= 8.51D-08
 New vectors created:   1

 Right Eigenvector.

 Vector Nr.  31
 **********************
 DD1Dir will call FoFMem   1 times, MxPair=       240
 NAB=   120 NAA=     0 NBB=     0.
 Actual subspace dimension: NDim=  31, NOld=  30, NNew=   1
 Right eigenvalues (eV) at iteration   16
 Root  1 =    5.559782019324
 Root  2 =    6.149003672931
 Norms of the Right Residuals
 Root I=  1 Norm= 6.28D-07 Max= 1.32D-07
 Root I=  2 Norm= 6.64D-07 Max= 8.51D-08
 New vectors created:   1
 DoRgt = F, DoLft = T

  Left Eigenvector.

 Vector Nr.   1
 **********************
 DD1Dir will call FoFMem   1 times, MxPair=       240
 NAB=   120 NAA=     0 NBB=     0.
 Vector Nr.   2
 **********************
 DD1Dir will call FoFMem   1 times, MxPair=       240
 NAB=   120 NAA=     0 NBB=     0.
 Actual subspace dimension: NDim=   2, NOld=   0, NNew=   2
 Left eigenvalues (eV) at iteration    1
 Root  1 =    5.548772300519
 Root  2 =    5.757302238204
 Norms of the Left  Residuals
 Root I=  1 Norm= 5.70D-02 Max= 1.17D-02
 Root I=  2 Norm= 7.63D-02 Max= 2.37D-02
 New vectors created:   2

  Left Eigenvector.

 Vector Nr.   3
 **********************
 DD1Dir will call FoFMem   1 times, MxPair=       240
 NAB=   120 NAA=     0 NBB=     0.
 Vector Nr.   4
 **********************
 DD1Dir will call FoFMem   1 times, MxPair=       240
 NAB=   120 NAA=     0 NBB=     0.
 Actual subspace dimension: NDim=   4, NOld=   2, NNew=   2
 Left eigenvalues (eV) at iteration    2
 Root  1 =    5.611825525193
 Root  2 =    6.168115524457
 Norms of the Left  Residuals
 Root I=  1 Norm= 1.79D-02 Max= 3.85D-03
 Root I=  2 Norm= 2.02D-02 Max= 1.85D-03
 New vectors created:   2

  Left Eigenvector.

 Vector Nr.   5
 **********************
 DD1Dir will call FoFMem   1 times, MxPair=       240
 NAB=   120 NAA=     0 NBB=     0.
 Vector Nr.   6
 **********************
 DD1Dir will call FoFMem   1 times, MxPair=       240
 NAB=   120 NAA=     0 NBB=     0.
 Actual subspace dimension: NDim=   6, NOld=   4, NNew=   2
 Left eigenvalues (eV) at iteration    3
 Root  1 =    5.569193324600
 Root  2 =    6.149749813366
 Norms of the Left  Residuals
 Root I=  1 Norm= 7.47D-03 Max= 1.48D-03
 Root I=  2 Norm= 5.04D-03 Max= 6.69D-04
 New vectors created:   2

  Left Eigenvector.

 Vector Nr.   7
 **********************
 DD1Dir will call FoFMem   1 times, MxPair=       240
 NAB=   120 NAA=     0 NBB=     0.
 Vector Nr.   8
 **********************
 DD1Dir will call FoFMem   1 times, MxPair=       240
 NAB=   120 NAA=     0 NBB=     0.
 Actual subspace dimension: NDim=   8, NOld=   6, NNew=   2
 Left eigenvalues (eV) at iteration    4
 Root  1 =    5.560627747546
 Root  2 =    6.148885258345
 Norms of the Left  Residuals
 Root I=  1 Norm= 3.56D-03 Max= 7.74D-04
 Root I=  2 Norm= 1.25D-03 Max= 1.61D-04
 New vectors created:   2

  Left Eigenvector.

 Vector Nr.   9
 **********************
 DD1Dir will call FoFMem   1 times, MxPair=       240
 NAB=   120 NAA=     0 NBB=     0.
 Vector Nr.  10
 **********************
 DD1Dir will call FoFMem   1 times, MxPair=       240
 NAB=   120 NAA=     0 NBB=     0.
 Actual subspace dimension: NDim=  10, NOld=   8, NNew=   2
 Left eigenvalues (eV) at iteration    5
 Root  1 =    5.559476722024
 Root  2 =    6.149020219919
 Norms of the Left  Residuals
 Root I=  1 Norm= 1.39D-03 Max= 2.40D-04
 Root I=  2 Norm= 5.21D-04 Max= 8.44D-05
 New vectors created:   2

  Left Eigenvector.

 Vector Nr.  11
 **********************
 DD1Dir will call FoFMem   1 times, MxPair=       240
 NAB=   120 NAA=     0 NBB=     0.
 Vector Nr.  12
 **********************
 DD1Dir will call FoFMem   1 times, MxPair=       240
 NAB=   120 NAA=     0 NBB=     0.
 Actual subspace dimension: NDim=  12, NOld=  10, NNew=   2
 Left eigenvalues (eV) at iteration    6
 Root  1 =    5.559483890177
 Root  2 =    6.149004850749
 Norms of the Left  Residuals
 Root I=  1 Norm= 5.66D-04 Max= 1.24D-04
 Root I=  2 Norm= 1.62D-04 Max= 2.38D-05
 New vectors created:   2

  Left Eigenvector.

 Vector Nr.  13
 **********************
 DD1Dir will call FoFMem   1 times, MxPair=       240
 NAB=   120 NAA=     0 NBB=     0.
 Vector Nr.  14
 **********************
 DD1Dir will call FoFMem   1 times, MxPair=       240
 NAB=   120 NAA=     0 NBB=     0.
 Actual subspace dimension: NDim=  14, NOld=  12, NNew=   2
 Left eigenvalues (eV) at iteration    7
 Root  1 =    5.559593494534
 Root  2 =    6.148996736310
 Norms of the Left  Residuals
 Root I=  1 Norm= 2.51D-04 Max= 3.81D-05
 Root I=  2 Norm= 6.29D-05 Max= 5.22D-06
 New vectors created:   2

  Left Eigenvector.

 Vector Nr.  15
 **********************
 DD1Dir will call FoFMem   1 times, MxPair=       240
 NAB=   120 NAA=     0 NBB=     0.
 Vector Nr.  16
 **********************
 DD1Dir will call FoFMem   1 times, MxPair=       240
 NAB=   120 NAA=     0 NBB=     0.
 Actual subspace dimension: NDim=  16, NOld=  14, NNew=   2
 Left eigenvalues (eV) at iteration    8
 Root  1 =    5.559722607264
 Root  2 =    6.149005409744
 Norms of the Left  Residuals
 Root I=  1 Norm= 9.91D-05 Max= 1.37D-05
 Root I=  2 Norm= 2.32D-05 Max= 2.53D-06
 New vectors created:   2

  Left Eigenvector.

 Vector Nr.  17
 **********************
 DD1Dir will call FoFMem   1 times, MxPair=       240
 NAB=   120 NAA=     0 NBB=     0.
 Vector Nr.  18
 **********************
 DD1Dir will call FoFMem   1 times, MxPair=       240
 NAB=   120 NAA=     0 NBB=     0.
 Actual subspace dimension: NDim=  18, NOld=  16, NNew=   2
 Left eigenvalues (eV) at iteration    9
 Root  1 =    5.559762292508
 Root  2 =    6.149003668619
 Norms of the Left  Residuals
 Root I=  1 Norm= 4.05D-05 Max= 5.38D-06
 Root I=  2 Norm= 8.94D-06 Max= 1.17D-06
 New vectors created:   2

  Left Eigenvector.

 Vector Nr.  19
 **********************
 DD1Dir will call FoFMem   1 times, MxPair=       240
 NAB=   120 NAA=     0 NBB=     0.
 Vector Nr.  20
 **********************
 DD1Dir will call FoFMem   1 times, MxPair=       240
 NAB=   120 NAA=     0 NBB=     0.
 Actual subspace dimension: NDim=  20, NOld=  18, NNew=   2
 Left eigenvalues (eV) at iteration   10
 Root  1 =    5.559773744249
 Root  2 =    6.149003931327
 Norms of the Left  Residuals
 Root I=  1 Norm= 1.64D-05 Max= 2.45D-06
 Root I=  2 Norm= 5.04D-06 Max= 9.89D-07
 New vectors created:   2

  Left Eigenvector.

 Vector Nr.  21
 **********************
 DD1Dir will call FoFMem   1 times, MxPair=       240
 NAB=   120 NAA=     0 NBB=     0.
 Vector Nr.  22
 **********************
 DD1Dir will call FoFMem   1 times, MxPair=       240
 NAB=   120 NAA=     0 NBB=     0.
 Actual subspace dimension: NDim=  22, NOld=  20, NNew=   2
 Left eigenvalues (eV) at iteration   11
 Root  1 =    5.559780387012
 Root  2 =    6.149003925350
 Norms of the Left  Residuals
 Root I=  1 Norm= 7.04D-06 Max= 1.04D-06
 Root I=  2 Norm= 2.11D-06 Max= 3.21D-07
 New vectors created:   2

  Left Eigenvector.

 Vector Nr.  23
 **********************
 DD1Dir will call FoFMem   1 times, MxPair=       240
 NAB=   120 NAA=     0 NBB=     0.
 Vector Nr.  24
 **********************
 DD1Dir will call FoFMem   1 times, MxPair=       240
 NAB=   120 NAA=     0 NBB=     0.
 Actual subspace dimension: NDim=  24, NOld=  22, NNew=   2
 Left eigenvalues (eV) at iteration   12
 Root  1 =    5.559782447768
 Root  2 =    6.149003824236
 Norms of the Left  Residuals
 Root I=  1 Norm= 2.80D-06 Max= 3.14D-07
 Root I=  2 Norm= 8.61D-07 Max= 1.10D-07
 New vectors created:   1

  Left Eigenvector.

 Vector Nr.  25
 **********************
 DD1Dir will call FoFMem   1 times, MxPair=       240
 NAB=   120 NAA=     0 NBB=     0.
 Actual subspace dimension: NDim=  25, NOld=  24, NNew=   1
 Left eigenvalues (eV) at iteration   13
 Root  1 =    5.559781961995
 Root  2 =    6.149003824228
 Norms of the Left  Residuals
 Root I=  1 Norm= 9.43D-07 Max= 1.60D-07
 Root I=  2 Norm= 8.61D-07 Max= 1.10D-07
 New vectors created:   1
 Final Eigenvalues for Irrep    1:
 Root       Hartree              eV                 nm 
   1     0.204318229767     5.559782019324   223.001895558350
   2     0.225971727114     6.149003672931   201.632979121220

 ==============================================

         EOM-CCSD transition properties        

 ==============================================
 Ground to excited state transition electric dipole moments (Au):
       state          X           Y           Z        Dip. S.      Osc.
         1        -0.0002     -0.0000      0.2297      0.0568      0.0077
         2        -0.1203      0.0000     -0.0001      0.0168      0.0025
 Excited to ground state transition electric dipole moments (Au):
       state          X           Y           Z        Dip. S.      Osc.
         1        -0.0002     -0.0000      0.2471      0.0568      0.0077
         2        -0.1397      0.0000     -0.0001      0.0168      0.0025
 Ground to excited state transition velocity dipole moments (Au):
       state          X           Y           Z        Dip. S.      Osc.
         1        -0.0000     -0.0000      0.1133      0.0138      0.0451
         2        -0.0098      0.0000     -0.0001      0.0002      0.0005
 Excited to ground state transition velocity dipole moments (Au):
       state          X           Y           Z        Dip. S.      Osc.
         1        -0.0000     -0.0000      0.1221      0.0138      0.0451
         2        -0.0169      0.0000     -0.0001      0.0002      0.0005
 Ground to excited state transition magnetic dipole moments (Au):
       state          X           Y           Z
         1        -1.1009      0.0000      0.0000
         2         0.0007     -0.0000      0.0503
 Excited to ground state transition magnetic dipole moments (Au):
       state          X           Y           Z
         1        -1.1846      0.0000      0.0000
         2         0.0007     -0.0000      0.0441
 1/2[<0|del|b>*<b|rxdel|0> + (<0|rxdel|b>*<b|del|0>)*]
 Rotatory Strengths (R) in cgs (10**-40 erg-esu-cm/Gauss)
       state          XX          YY          ZZ    R(velocity)
         1         0.0976     -0.0000      0.0176      0.0384
         2        -0.0287     -0.0000     -0.0101     -0.0129
 1/2[<0|r|b>*<b|rxdel|0> + (<0|rxdel|b>*<b|r|0>)*]
 Rotatory Strengths (R) in cgs (10**-40 erg-esu-cm/Gauss)
       state          XX          YY          ZZ     R(length)
         1         0.1292     -0.0000      0.0073      0.0455
         2        -0.0634     -0.0000     -0.0040     -0.0224
  1/2[<0|del|b>*<b|r|0> + (<0|r|b>*<b|del|0>)*] (Au)
       state          X           Y           Z        Dip. S.   Osc.(frdel)
         1        -0.0000     -0.0000     -0.0280      0.0280      0.0187
         2        -0.0017     -0.0000     -0.0000      0.0017      0.0011

 Excitation energies and oscillator strengths:

 ----------------------------------------------
 Excited State   1:      Singlet-?Sym    5.5598 eV  223.00 nm  f=0.0077
 Right Eigenvector 
 Alpha Singles Amplitudes
     I    SymI    A    SymA    Value
    19      1    22      1   -0.639305
    19      1    24      1   -0.104944
 Beta  Singles Amplitudes
     I    SymI    A    SymA    Value
    19      1    22      1   -0.639305
    19      1    24      1   -0.104944
 Alpha-Beta  Doubles Amplitudes
     I    SymI    J    SymJ    A    SymA    B    SymB    Value
    19      1    20      1    22      1    22      1    0.165011
    20      1    19      1    22      1    22      1    0.165011
 Left  Eigenvector 
 Alpha Singles Amplitudes
     I    SymI    A    SymA    Value
    19      1    22      1   -0.635126
    19      1    24      1   -0.111864
 Beta  Singles Amplitudes
     I    SymI    A    SymA    Value
    19      1    22      1   -0.635126
    19      1    24      1   -0.111864
 Alpha-Beta  Doubles Amplitudes
     I    SymI    J    SymJ    A    SymA    B    SymB    Value
    19      1    20      1    22      1    22      1    0.164624
    20      1    19      1    22      1    22      1    0.164624
 Total Energy, E(EOM-CCSD) =  -243.849398456    

 ----------------------------------------------
 Excited State   2:      Singlet-?Sym    6.1490 eV  201.63 nm  f=0.0025
 Right Eigenvector 
 Alpha Singles Amplitudes
     I    SymI    A    SymA    Value
    20      1    23      1    0.427348
    21      1    22      1   -0.496000
 Beta  Singles Amplitudes
     I    SymI    A    SymA    Value
    20      1    23      1    0.427348
    21      1    22      1   -0.496000
 Left  Eigenvector 
 Alpha Singles Amplitudes
     I    SymI    A    SymA    Value
    20      1    23      1    0.415492
    21      1    22      1   -0.485889
 Beta  Singles Amplitudes
     I    SymI    A    SymA    Value
    20      1    23      1    0.415492
    21      1    22      1   -0.485889
 Alpha-Beta  Doubles Amplitudes
     I    SymI    J    SymJ    A    SymA    B    SymB    Value
    17      1    21      1    22      1    22      1    0.106973
    21      1    17      1    22      1    22      1    0.106973
 Ground to excited state transition densities written to RWF  633
 SavETr:  write IOETrn=   770 NScale= 10 NData=  16 NLR=2 NState=    2 LETran=      78.

 EOM-CCSD Z-AMPLITUDE ITERATIONS


 State   1 of Irrep   1

 Iteration Nr.   1
 **********************
 DD1Dir will call FoFMem   1 times, MxPair=       240
 NAB=   120 NAA=     0 NBB=     0.
 Restarting extrapolation.
 Maximum subspace dimension=  5
 A-vector RMS=  2.9620381D-03 Max=  1.9365811D-02 conv= 1.00D-06.
 RLE energy=       -0.3027374170
 DE(Z)= -0.29991812     E(Z)=     -243.93818604     Delta= 9.96D-02
 NORM(A)=   0.10858982D+01
 Iteration Nr.   2
 **********************
 DD1Dir will call FoFMem   1 times, MxPair=       240
 NAB=   120 NAA=     0 NBB=     0.
 A-vector RMS=  2.5064315D-03 Max=  1.3794613D-02 conv= 1.00D-06.
 RLE energy=       -0.3200346810
 DE(Z)= -0.31531868     E(Z)=     -243.95358660     Delta=-1.54D-02
 NORM(A)=   0.11005309D+01
 Iteration Nr.   3
 **********************
 DD1Dir will call FoFMem   1 times, MxPair=       240
 NAB=   120 NAA=     0 NBB=     0.
 A-vector RMS=  6.6084063D-04 Max=  5.0687881D-03 conv= 1.00D-06.
 RLE energy=       -0.3220379087
 DE(Z)= -0.31972684     E(Z)=     -243.95799477     Delta=-4.41D-03
 NORM(A)=   0.11040534D+01
 Iteration Nr.   4
 **********************
 DD1Dir will call FoFMem   1 times, MxPair=       240
 NAB=   120 NAA=     0 NBB=     0.
 A-vector RMS=  1.8304922D-04 Max=  1.9732746D-03 conv= 1.00D-06.
 RLE energy=       -0.3222209038
 DE(Z)= -0.32196849     E(Z)=     -243.96023641     Delta=-2.24D-03
 NORM(A)=   0.11054732D+01
 Iteration Nr.   5
 **********************
 DD1Dir will call FoFMem   1 times, MxPair=       240
 NAB=   120 NAA=     0 NBB=     0.
 A-vector RMS=  9.7548659D-05 Max=  6.4029427D-04 conv= 1.00D-06.
 RLE energy=       -0.3222024082
 DE(Z)= -0.32219259     E(Z)=     -243.96046052     Delta=-2.24D-04
 NORM(A)=   0.11055795D+01
 Iteration Nr.   6
 **********************
 DD1Dir will call FoFMem   1 times, MxPair=       240
 NAB=   120 NAA=     0 NBB=     0.
 A-vector RMS=  2.4367702D-05 Max=  1.6115164D-04 conv= 1.00D-06.
 RLE energy=       -0.3221712209
 DE(Z)= -0.32219338     E(Z)=     -243.96046130     Delta=-7.85D-07
 NORM(A)=   0.11055606D+01
 Iteration Nr.   7
 **********************
 DD1Dir will call FoFMem   1 times, MxPair=       240
 NAB=   120 NAA=     0 NBB=     0.
 A-vector RMS=  9.5969066D-06 Max=  4.4877852D-05 conv= 1.00D-06.
 RLE energy=       -0.3221862374
 DE(Z)= -0.32218941     E(Z)=     -243.96045734     Delta= 3.97D-06
 NORM(A)=   0.11055570D+01
 Iteration Nr.   8
 **********************
 DD1Dir will call FoFMem   1 times, MxPair=       240
 NAB=   120 NAA=     0 NBB=     0.
 A-vector RMS=  4.4285427D-06 Max=  2.3974530D-05 conv= 1.00D-06.
 RLE energy=       -0.3221857052
 DE(Z)= -0.32218591     E(Z)=     -243.96045383     Delta= 3.51D-06
 NORM(A)=   0.11055508D+01
 Iteration Nr.   9
 **********************
 DD1Dir will call FoFMem   1 times, MxPair=       240
 NAB=   120 NAA=     0 NBB=     0.
 A-vector RMS=  7.4706007D-07 Max=  3.5121825D-06 conv= 1.00D-06.
 RLE energy=       -0.3221882080
 DE(Z)= -0.32218781     E(Z)=     -243.96045573     Delta=-1.90D-06
 NORM(A)=   0.11055528D+01
 Iteration Nr.  10
 **********************
 DD1Dir will call FoFMem   1 times, MxPair=       240
 NAB=   120 NAA=     0 NBB=     0.
 A-vector RMS=  3.4494762D-07 Max=  1.8401647D-06 conv= 1.00D-06.
 RLE energy=       -0.3221886776
 DE(Z)= -0.32218836     E(Z)=     -243.96045628     Delta=-5.46D-07
 NORM(A)=   0.11055532D+01
 Iteration Nr.  11
 **********************
 DD1Dir will call FoFMem   1 times, MxPair=       240
 NAB=   120 NAA=     0 NBB=     0.
 A-vector RMS=  9.5598214D-08 Max=  1.0041844D-06 conv= 1.00D-06.
 RLE energy=       -0.3221890002
 DE(Z)= -0.32218882     E(Z)=     -243.96045675     Delta=-4.66D-07
 NORM(A)=   0.11055538D+01
 Iteration Nr.  12
 **********************
 DD1Dir will call FoFMem   1 times, MxPair=       240
 NAB=   120 NAA=     0 NBB=     0.
 A-vector RMS=  4.3450654D-08 Max=  4.7988669D-07 conv= 1.00D-06.
 RLE energy=       -0.3221890294
 DE(Z)= -0.32218897     E(Z)=     -243.96045689     Delta=-1.48D-07
 NORM(A)=   0.11055540D+01
 Iteration Nr.  13
 **********************
 DD1Dir will call FoFMem   1 times, MxPair=       240
 NAB=   120 NAA=     0 NBB=     0.
 A-vector RMS=  1.6739909D-08 Max=  2.3605890D-07 conv= 1.00D-06.
 RLE energy=       -0.3221890389
 DE(Z)= -0.32218903     E(Z)=     -243.96045695     Delta=-5.76D-08
 NORM(A)=   0.11055541D+01
 Iteration Nr.  14
 **********************
 DD1Dir will call FoFMem   1 times, MxPair=       240
 NAB=   120 NAA=     0 NBB=     0.
 A-vector RMS=  7.5730813D-09 Max=  7.9034694D-08 conv= 1.00D-06.
 RLE energy=       -0.3221890472
 DE(Z)= -0.32218904     E(Z)=     -243.96045697     Delta=-1.55D-08
 NORM(A)=   0.11055541D+01
 Iteration Nr.  15
 **********************
 DD1Dir will call FoFMem   1 times, MxPair=       240
 NAB=   120 NAA=     0 NBB=     0.
 A-vector RMS=  6.3878817D-09 Max=  3.7158454D-08 conv= 1.00D-06.
 RLE energy=       -0.3221890435
 DE(Z)= -0.32218904     E(Z)=     -243.96045697     Delta=-2.45D-09
 NORM(A)=   0.11055541D+01
 CI/CC converged in   15 iterations to DelEn=-2.45D-09 Conv= 1.00D-08 ErrA1= 6.39D-09 Conv= 1.00D-06
 Z-amplitudes converged.
 Discarding MO integrals.
 Leave Link  913 at Tue Oct  1 22:20:23 2024, MaxMem=  4294967296 cpu:             500.6 elap:              33.0
 (Enter /gpfs1/apps/software/Gaussian16/AVX/g16/l1111.exe)
 Unit  1 TFree=        756705 TCopy=        977582.
 Selected functions:
 Compute EOM-CCSD 2PDM.
 Form Post-SCF non-separable gradient here.
 IO1PDM=    0 IOW=    0 IO2PDM=    0.
 MDV=    4294967296.
 Frozen-core window:  NFC=   6 NFV=   0.
 Leave Link 1111 at Tue Oct  1 22:20:44 2024, MaxMem=  4294967296 cpu:             312.9 elap:              20.8
 (Enter /gpfs1/apps/software/Gaussian16/AVX/g16/l1002.exe)
 Minotr:  Closed shell wavefunction.
          Computing CCSD/QCISD derivatives.
          Using Z-Vector for PSCF gradient.
          Skipping F1 and S1 gradient terms here.
          IDoAtm=11111111111
          Frozen-core window.
          Direct CPHF calculation.
          Differentiating once with respect to electric field.
                with respect to dipole field.
          Differentiating once with respect to nuclear coordinates.
          Requested convergence is 1.0D-10 RMS, and 1.0D-09 maximum.
          NewPWx=F KeepS1=T KeepF1=T KeepIn=T MapXYZ=F SortEE=F KeepMc=T.
 Keep R1 ints in memory in canonical form, NReq=3441536.
 FoFCou: FMM=F IPFlag=           0 FMFlag=           0 FMFlg1=           0
         NFxFlg=           0 DoJE=F BraDBF=F KetDBF=F FulRan=T
         wScrn=  0.000000 ICntrl=       600 IOpCl=  0 I1Cent=           0 NGrid=           0
         NMat0=    1 NMatS0=    630 NMatT0=    0 NMatD0=    1 NMtDS0=    0 NMtDT0=    0
 Symmetry not used in FoFCou.
 Two-electron integral symmetry not used.
[...]
  30        2PZ        -0.00000   0.00000  -0.00001  -0.00001   0.51865
  31 7   H  1S          0.00203  -0.01093  -0.00056   0.01548   0.00000
  32 8   H  1S         -0.01482   0.05672  -0.07710   0.04629  -0.00000
  33 9   H  1S          0.02688  -0.10296   0.07338  -0.10189   0.00000
  34 10  H  1S         -0.10685   0.27947   0.47590   0.28900   0.00002
  35 11  H  1S          0.02933  -0.10257  -0.05845   0.12450   0.00000
                          26        27        28        29        30
  26 6   C  1S          2.06916
  27        2S         -0.21889   0.83961
  28        2PX        -0.01377   0.03977   0.57321
  29        2PY        -0.00562  -0.00295  -0.03511   0.57812
  30        2PZ         0.00000  -0.00001  -0.00000  -0.00000   0.81758
  31 7   H  1S         -0.01739   0.07014  -0.09521  -0.04446  -0.00000
  32 8   H  1S         -0.00119   0.00401  -0.00280   0.00416  -0.00000
  33 9   H  1S         -0.01612   0.06250  -0.00007   0.08016   0.00000
  34 10  H  1S          0.02884  -0.10154  -0.05773  -0.11212  -0.00000
  35 11  H  1S         -0.11919   0.32846   0.41517  -0.30962   0.00001
                          31        32        33        34        35
  31 7   H  1S          0.57492
  32 8   H  1S         -0.05034   0.60072
  33 9   H  1S         -0.03870  -0.05789   0.59142
  34 10  H  1S          0.02574  -0.03430  -0.05790   0.60072
  35 11  H  1S         -0.02298   0.02574  -0.03870  -0.05034   0.57492
    Full Mulliken population analysis:
                           1         2         3         4         5
   1 1   N  1S          2.09305
   2        2S         -0.08962   1.67104
   3        2PX         0.00000   0.00000   0.63910
   4        2PY         0.00000   0.00000   0.00000   1.46733
   5        2PZ         0.00000   0.00000   0.00000   0.00000   0.83395
   6 2   C  1S          0.00000  -0.00071  -0.00349  -0.00144  -0.00000
   7        2S         -0.00061  -0.01198   0.07069   0.03447   0.00000
   8        2PX        -0.00240   0.04758   0.07880   0.06547   0.00000
   9        2PY        -0.00065   0.01224   0.03827  -0.00898  -0.00000
  10        2PZ        -0.00000   0.00000   0.00000   0.00000   0.08885
  11 3   C  1S         -0.00000   0.00000   0.00001   0.00006  -0.00000
  12        2S          0.00000   0.00130  -0.00179  -0.00917  -0.00000
  13        2PX         0.00002  -0.00204  -0.00050  -0.00031   0.00000
  14        2PY         0.00001  -0.00007  -0.00312  -0.01124   0.00000
  15        2PZ        -0.00000   0.00000  -0.00000  -0.00000  -0.00113
  16 4   C  1S          0.00000   0.00000   0.00000   0.00001  -0.00000
  17        2S          0.00000  -0.00049  -0.00000  -0.00199   0.00000
  18        2PX         0.00000  -0.00000  -0.00036  -0.00000   0.00000
  19        2PY         0.00001  -0.00095  -0.00000  -0.00223  -0.00000
  20        2PZ        -0.00000   0.00000  -0.00000   0.00000  -0.00242
  21 5   C  1S         -0.00000   0.00000   0.00001   0.00006  -0.00000
  22        2S          0.00000   0.00130  -0.00179  -0.00917   0.00000
  23        2PX         0.00002  -0.00204  -0.00050  -0.00031  -0.00000
  24        2PY         0.00001  -0.00007  -0.00312  -0.01124  -0.00000
  25        2PZ         0.00000   0.00000  -0.00000  -0.00000  -0.00113
  26 6   C  1S          0.00000  -0.00071  -0.00349  -0.00144   0.00000
  27        2S         -0.00061  -0.01198   0.07070   0.03447  -0.00000
  28        2PX        -0.00240   0.04759   0.07882   0.06546   0.00000
  29        2PY        -0.00065   0.01224   0.03826  -0.00898   0.00000
  30        2PZ        -0.00000   0.00000   0.00000   0.00000   0.08885
  31 7   H  1S          0.00014  -0.01179  -0.01026   0.00005  -0.00000
  32 8   H  1S         -0.00000   0.00010   0.00033   0.00052  -0.00000
  33 9   H  1S         -0.00000   0.00001  -0.00000   0.00000   0.00000
  34 10  H  1S         -0.00000   0.00010   0.00033   0.00052  -0.00000
  35 11  H  1S          0.00014  -0.01179  -0.01026   0.00005   0.00000
                           6         7         8         9        10
   6 2   C  1S          2.06916
   7        2S         -0.05436   0.83961
   8        2PX         0.00000   0.00000   0.57321
   9        2PY         0.00000   0.00000   0.00000   0.57812
  10        2PZ         0.00000   0.00000   0.00000   0.00000   0.81758
  11 3   C  1S          0.00000  -0.00234   0.00000  -0.00691  -0.00000
  12        2S         -0.00232   0.02961  -0.00005   0.11153   0.00000
  13        2PX         0.00000  -0.00004   0.00238   0.00003  -0.00000
  14        2PY        -0.00701   0.11285  -0.00014   0.15050   0.00000
  15        2PZ        -0.00000   0.00000   0.00000   0.00000   0.11146
  16 4   C  1S         -0.00000   0.00002   0.00001   0.00006  -0.00000
  17        2S          0.00002  -0.00215  -0.00142  -0.00504   0.00000
  18        2PX         0.00002  -0.00180  -0.00036  -0.00331   0.00000
  19        2PY         0.00005  -0.00488  -0.00051  -0.00554  -0.00000
  20        2PZ         0.00000  -0.00000   0.00000  -0.00000  -0.00123
  21 5   C  1S          0.00000   0.00000   0.00001   0.00000  -0.00000
  22        2S          0.00000  -0.00095  -0.00106  -0.00030   0.00000
  23        2PX         0.00000  -0.00074  -0.00022  -0.00094  -0.00000
  24        2PY         0.00000  -0.00025  -0.00091   0.00012  -0.00000
  25        2PZ        -0.00000   0.00000   0.00000   0.00000  -0.00253
  26 6   C  1S         -0.00000   0.00002   0.00007   0.00000   0.00000
  27        2S          0.00002  -0.00163  -0.00637  -0.00000  -0.00000
  28        2PX         0.00007  -0.00637  -0.01185  -0.00000  -0.00000
  29        2PY        -0.00000   0.00000   0.00000  -0.00018   0.00000
  30        2PZ        -0.00000  -0.00000   0.00000   0.00000  -0.00095
  31 7   H  1S         -0.00713   0.15797   0.15675   0.08208   0.00000
  32 8   H  1S          0.00016  -0.00992  -0.00323  -0.01265  -0.00000
  33 9   H  1S         -0.00000   0.00034   0.00000   0.00069   0.00000
  34 10  H  1S         -0.00000   0.00001   0.00001   0.00001   0.00000
  35 11  H  1S         -0.00000   0.00036   0.00080   0.00007  -0.00000
                          11        12        13        14        15
  11 3   C  1S          2.06992
  12        2S         -0.05406   0.83320
  13        2PX         0.00000   0.00000   0.60938
  14        2PY         0.00000   0.00000   0.00000   0.60941
  15        2PZ         0.00000   0.00000   0.00000   0.00000   0.78237
  16 4   C  1S          0.00000  -0.00199  -0.00428  -0.00139  -0.00000
  17        2S         -0.00197   0.03565   0.08057   0.02485  -0.00000
  18        2PX        -0.00429   0.08127   0.06667   0.04635   0.00000
  19        2PY        -0.00148   0.02928   0.04503  -0.00680  -0.00000
  20        2PZ        -0.00000   0.00000   0.00000  -0.00000   0.09788
  21 5   C  1S         -0.00000   0.00002   0.00007  -0.00000   0.00000
  22        2S          0.00002  -0.00150  -0.00642   0.00000  -0.00000
  23        2PX         0.00007  -0.00642  -0.00991   0.00000  -0.00000
  24        2PY         0.00000  -0.00000  -0.00000   0.00044  -0.00000
  25        2PZ         0.00000  -0.00000  -0.00000  -0.00000  -0.00068
  26 6   C  1S          0.00000   0.00000   0.00000   0.00000  -0.00000
  27        2S          0.00000  -0.00095  -0.00074  -0.00025   0.00000
  28        2PX         0.00001  -0.00106  -0.00022  -0.00091  -0.00000
  29        2PY         0.00000  -0.00030  -0.00094   0.00012   0.00000
  30        2PZ         0.00000  -0.00000  -0.00000  -0.00000  -0.00253
  31 7   H  1S          0.00013  -0.00871  -0.00269  -0.01264  -0.00000
  32 8   H  1S         -0.00640   0.13450   0.19226   0.06449   0.00000
  33 9   H  1S          0.00012  -0.00873  -0.00461  -0.00936   0.00000
  34 10  H  1S         -0.00000   0.00027   0.00062   0.00006  -0.00000
  35 11  H  1S          0.00000  -0.00002   0.00000  -0.00002  -0.00000
                          16        17        18        19        20
  16 4   C  1S          2.06905
  17        2S         -0.05450   0.84109
  18        2PX         0.00000   0.00000   0.58276
  19        2PY         0.00000   0.00000   0.00000   0.60610
  20        2PZ         0.00000   0.00000   0.00000   0.00000   0.80107
  21 5   C  1S          0.00000  -0.00197  -0.00429  -0.00149  -0.00000
  22        2S         -0.00199   0.03565   0.08127   0.02928   0.00000
  23        2PX        -0.00428   0.08056   0.06666   0.04504   0.00000
  24        2PY        -0.00139   0.02485   0.04636  -0.00680  -0.00000
  25        2PZ        -0.00000   0.00000   0.00000   0.00000   0.09788
  26 6   C  1S         -0.00000   0.00002   0.00002   0.00005  -0.00000
  27        2S          0.00002  -0.00215  -0.00180  -0.00488   0.00000
  28        2PX         0.00001  -0.00142  -0.00036  -0.00051  -0.00000
  29        2PY         0.00006  -0.00504  -0.00331  -0.00554   0.00000
  30        2PZ         0.00000  -0.00000  -0.00000   0.00000  -0.00123
  31 7   H  1S         -0.00000   0.00028   0.00037   0.00029  -0.00000
  32 8   H  1S          0.00012  -0.00817  -0.01336  -0.00011  -0.00000
  33 9   H  1S         -0.00674   0.14252   0.00000   0.25224   0.00000
  34 10  H  1S          0.00012  -0.00817  -0.01336  -0.00011  -0.00000
  35 11  H  1S         -0.00000   0.00028   0.00037   0.00029   0.00000
                          21        22        23        24        25
  21 5   C  1S          2.06992
  22        2S         -0.05406   0.83320
  23        2PX         0.00000   0.00000   0.60938
  24        2PY         0.00000   0.00000   0.00000   0.60940
  25        2PZ         0.00000   0.00000   0.00000   0.00000   0.78237
  26 6   C  1S          0.00000  -0.00232   0.00000  -0.00701  -0.00000
  27        2S         -0.00234   0.02961  -0.00004   0.11285   0.00000
  28        2PX         0.00000  -0.00005   0.00238  -0.00014  -0.00000
  29        2PY        -0.00691   0.11153   0.00003   0.15050   0.00000
  30        2PZ        -0.00000   0.00000  -0.00000   0.00000   0.11146
  31 7   H  1S          0.00000  -0.00002   0.00000  -0.00002  -0.00000
  32 8   H  1S         -0.00000   0.00027   0.00062   0.00006   0.00000
  33 9   H  1S          0.00012  -0.00873  -0.00461  -0.00936  -0.00000
  34 10  H  1S         -0.00640   0.13450   0.19228   0.06448   0.00000
  35 11  H  1S          0.00013  -0.00871  -0.00269  -0.01264   0.00000
                          26        27        28        29        30
  26 6   C  1S          2.06916
  27        2S         -0.05436   0.83961
  28        2PX         0.00000   0.00000   0.57321
  29        2PY         0.00000   0.00000   0.00000   0.57812
  30        2PZ         0.00000   0.00000   0.00000   0.00000   0.81758
  31 7   H  1S         -0.00000   0.00036   0.00080   0.00007   0.00000
  32 8   H  1S         -0.00000   0.00001   0.00001   0.00001   0.00000
  33 9   H  1S         -0.00000   0.00034   0.00000   0.00069  -0.00000
  34 10  H  1S          0.00016  -0.00992  -0.00323  -0.01265  -0.00000
  35 11  H  1S         -0.00713   0.15797   0.15674   0.08209   0.00000
                          31        32        33        34        35
  31 7   H  1S          0.57492
  32 8   H  1S         -0.00220   0.60072
  33 9   H  1S         -0.00002  -0.00245   0.59142
  34 10  H  1S          0.00000  -0.00002  -0.00245   0.60072
  35 11  H  1S         -0.00002   0.00000  -0.00002  -0.00220   0.57492
     Gross orbital populations:
                           1
   1 1   N  1S          1.99646
   2        2S          1.64924
   3        2PX         0.97668
   4        2PY         1.60194
   5        2PZ         1.00695
   6 2   C  1S          1.99303
   7        2S          1.14792
   8        2PX         0.89658
   9        2PY         0.92920
  10        2PZ         1.01318
  11 3   C  1S          1.99289
  12        2S          1.15957
  13        2PX         0.96436
  14        2PY         0.95611
  15        2PZ         0.98736
  16 4   C  1S          1.99293
  17        2S          1.17186
  18        2PX         0.92554
  19        2PY         0.96586
  20        2PZ         0.99196
  21 5   C  1S          1.99289
  22        2S          1.15957
  23        2PX         0.96436
  24        2PY         0.95611
  25        2PZ         0.98737
  26 6   C  1S          1.99303
  27        2S          1.14793
  28        2PX         0.89657
  29        2PY         0.92920
  30        2PZ         1.01318
  31 7   H  1S          0.91873
  32 8   H  1S          0.93566
  33 9   H  1S          0.93140
  34 10  H  1S          0.93566
  35 11  H  1S          0.91873
          Condensed to atoms (all electrons):
               1          2          3          4          5          6
     1  N    6.525220   0.406103  -0.027966  -0.008422  -0.027966   0.406104
     2  C    0.406103   4.768954   0.499548  -0.026046  -0.007762  -0.027180
     3  C   -0.027966   0.499548   4.796152   0.485352  -0.024311  -0.007762
     4  C   -0.008422  -0.026046   0.485352   4.791076   0.485357  -0.026046
     5  C   -0.027966  -0.007762  -0.024311   0.485357   4.796151   0.499544
     6  C    0.406104  -0.027180  -0.007762  -0.026046   0.499544   4.768956
     7  H   -0.021861   0.389667  -0.023902   0.000947  -0.000034   0.001222
     8  H    0.000948  -0.025639   0.384848  -0.021516   0.000951   0.000017
     9  H    0.000018   0.001029  -0.022586   0.388014  -0.022586   0.001029
    10  H    0.000948   0.000017   0.000951  -0.021516   0.384848  -0.025639
    11  H   -0.021861   0.001222  -0.000034   0.000947  -0.023902   0.389667
               7          8          9         10         11
     1  N   -0.021861   0.000948   0.000018   0.000948  -0.021861
     2  C    0.389667  -0.025639   0.001029   0.000017   0.001222
     3  C   -0.023902   0.384848  -0.022586   0.000951  -0.000034
     4  C    0.000947  -0.021516   0.388014  -0.021516   0.000947
     5  C   -0.000034   0.000951  -0.022586   0.384848  -0.023902
     6  C    0.001222   0.000017   0.001029  -0.025639   0.389667
     7  H    0.574921  -0.002197  -0.000021   0.000002  -0.000016
     8  H   -0.002197   0.600720  -0.002452  -0.000018   0.000002
     9  H   -0.000021  -0.002452   0.591424  -0.002452  -0.000021
    10  H    0.000002  -0.000018  -0.002452   0.600721  -0.002197
    11  H   -0.000016   0.000002  -0.000021  -0.002197   0.574920
 Mulliken charges:
               1
     1  N   -0.231264
     2  C    0.020086
     3  C   -0.060291
     4  C   -0.048147
     5  C   -0.060291
     6  C    0.020087
     7  H    0.081272
     8  H    0.064336
     9  H    0.068605
    10  H    0.064336
    11  H    0.081272
 Sum of Mulliken charges =  -0.00000
 Mulliken charges with hydrogens summed into heavy atoms:
               1
     1  N   -0.231264
     2  C    0.101358
     3  C    0.004045
     4  C    0.020457
     5  C    0.004044
     6  C    0.101359
 Electronic spatial extent (au):  <R**2>=            456.1784
 Charge=             -0.0000 electrons
 Dipole moment (field-independent basis, Debye):
    X=              0.0000    Y=              1.8085    Z=              0.0000  Tot=              1.8085
 Quadrupole moment (field-independent basis, Debye-Ang):
   XX=            -27.9255   YY=            -34.7396   ZZ=            -33.8867
   XY=             -0.0002   XZ=              0.0001   YZ=             -0.0000
 Traceless Quadrupole moment (field-independent basis, Debye-Ang):
   XX=              4.2584   YY=             -2.5556   ZZ=             -1.7028
   XY=             -0.0002   XZ=              0.0001   YZ=             -0.0000
 Octapole moment (field-independent basis, Debye-Ang**2):
  XXX=             -0.0002  YYY=              9.2972  ZZZ=             -0.0001  XYY=              0.0004
  XXY=             -3.8590  XXZ=              0.0001  XZZ=             -0.0000  YZZ=             -1.7845
  YYZ=              0.0000  XYZ=              0.0000
 Hexadecapole moment (field-independent basis, Debye-Ang**3):
 XXXX=           -267.7423 YYYY=           -259.4913 ZZZZ=            -26.6543 XXXY=              0.0005
 XXXZ=             -0.0006 YYYX=             -0.0005 YYYZ=              0.0001 ZZZX=             -0.0014
 ZZZY=              0.0002 XXYY=            -80.5305 XXZZ=            -56.6349 YYZZ=            -48.2256
 XXYZ=              0.0000 YYXZ=             -0.0002 ZZXY=              0.0002
 N-N= 1.988469603971D+02 E-N=-9.660255796283D+02  KE= 2.409537583676D+02
 Orbital energies and kinetic energies (alpha):
                                 1                 2
  17         O                -0.455029          1.166879
  18         O                -0.446160          1.334079
  19         O                -0.311083          1.924743
  20         O                -0.298063          1.313344
  21         O                -0.277295          1.464920
  22         V                 0.223134          1.925500
  23         V                 0.253139          1.814913
  24         V                 0.453679          2.173638
  25         V                 0.563182          2.929646
  26         V                 0.571057          2.192084
 Total kinetic energy from orbitals= 2.409537583676D+02
 No NMR shielding tensors so no spin-rotation constants.
 Leave Link  601 at Tue Oct  1 22:25:02 2024, MaxMem=  4294967296 cpu:               1.2 elap:               0.1
 (Enter /gpfs1/apps/software/Gaussian16/AVX/g16/l9999.exe)
 Electronic transition elements 
                 1             2 
      1  -0.243883D+03 -0.243838D+03
      2  -0.246630D-05  0.430794D-01
      3   0.482233D-05 -0.359727D-05
      4  -0.210584D+00  0.175628D-05
      5   0.000000D+00  0.354384D-03
      6   0.174724D-05  0.000000D+00
      7  -0.101766D+00  0.000000D+00
      8   0.109581D+01  0.000000D+00
      9  -0.315227D-04  0.453489D-04
     10   0.714047D-05 -0.188316D-01
     11   0.000000D+00  0.000000D+00
     12   0.000000D+00  0.000000D+00
     13   0.000000D+00  0.000000D+00
     14   0.000000D+00  0.000000D+00
     15   0.000000D+00  0.000000D+00
     16   0.000000D+00  0.000000D+00
     17  -0.243883D+03 -0.243838D+03
     18  -0.127511D-05  0.532891D-01
     19   0.543307D-05 -0.411564D-05
     20  -0.230032D+00  0.237931D-05
     21   0.000000D+00  0.565271D-02
     22   0.186436D-05  0.000000D+00
     23  -0.111515D+00  0.000000D+00
     24   0.120175D+01  0.000000D+00
     25  -0.344974D-04  0.488051D-04
     26   0.886437D-05 -0.566599D-02
     27   0.000000D+00  0.000000D+00
     28   0.000000D+00  0.000000D+00
     29   0.000000D+00  0.000000D+00
     30   0.000000D+00  0.000000D+00
     31   0.000000D+00  0.000000D+00
     32   0.000000D+00  0.000000D+00
 Unable to Open any file for archive entry.
 1\1\GINC-KENNEDY74\FOpt\REOMCCSD-FC\STO-3G\C5H5N1\OSL\01-Oct-2024\0\\#
 p Opt EOMCCSD=(nstates=2, root=1) STO-3G Symmetry=(Tight) Population=(
 Regular) Density=(SCF)\\Pyridine_Excited_States_Post_HF_Optimised_S_1_
 _EOM_CCSD_Gas_Phase_Pople_Basis_Sets_STO_3G\\0,1\N,-0.0000342982,-1.37
 97600431,-0.0000058573\C,-1.2723963494,-0.7274355127,0.0000077099\C,-1
 .2592893596,0.6676776656,-0.0000194246\C,0.0000354983,1.4045091095,-0.
 0000063734\C,1.2593172519,0.6676200641,0.0000207801\C,1.2723626518,-0.
 7274982166,0.0000032085\H,-2.1784599037,-1.3636579623,0.0000024001\H,-
 2.2279466936,1.2026429576,-0.0000432853\H,0.0000614094,2.5083103112,-0
 .0000090532\H,2.2280010037,1.2025383486,0.0000607765\H,2.1783960592,-1
 .3637627093,0.0000310858\\Version=ES64L-G16RevC.01\HF=-243.5955783\MP2
 =-243.9690452\MP3=-244.030656\RMSD=9.058e-09\RMSF=3.155e-05\Dipole=-0.
 0000013,-0.1185094,0.0000121\PG=C01 [X(C5H5N1)]\\@
 The archive entry for this job was punched.


 You don't have to suffer to be a poet.
 Adolescence is enough suffering for anyone.
                             -- John Ciardi
 Job cpu time:       0 days  1 hours 15 minutes  2.2 seconds.
 Elapsed time:       0 days  0 hours  5 minutes  0.5 seconds.
 File lengths (MBytes):  RWF=     82 Int=      0 D2E=      0 Chk=      6 Scr=      2
 Normal termination of Gaussian 16 at Tue Oct  1 22:25:04 2024.
