 Entering Gaussian System, Link 0=g16
 Input=/gpfs1/home/osl/test/water/Gaussian 16 Optimisation Frequencies PBE1PBE (GD3BJ) Toluene 6-31G(d,p)/Input/water.com
 Output=/gpfs1/home/osl/test/water/Gaussian 16 Optimisation Frequencies PBE1PBE (GD3BJ) Toluene 6-31G(d,p)/Output/water.log
 Initial command:
 /gpfs1/apps/software/Gaussian16/AVX/g16/l1.exe "/scratch/tmp/osl/1aa7f6fda6be4889a3a37969a1a93aa5/Gau-53367.inp" -scrdir="/scratch/tmp/osl/1aa7f6fda6be4889a3a37969a1a93aa5/"
 Entering Link 1 = /gpfs1/apps/software/Gaussian16/AVX/g16/l1.exe PID=     53370.
  
 Copyright (c) 1988-2019, Gaussian, Inc.  All Rights Reserved.
  
 This is part of the Gaussian(R) 16 program.  It is based on
 the Gaussian(R) 09 system (copyright 2009, Gaussian, Inc.),
 the Gaussian(R) 03 system (copyright 2003, Gaussian, Inc.),
 the Gaussian(R) 98 system (copyright 1998, Gaussian, Inc.),
 the Gaussian(R) 94 system (copyright 1995, Gaussian, Inc.),
 the Gaussian 92(TM) system (copyright 1992, Gaussian, Inc.),
 the Gaussian 90(TM) system (copyright 1990, Gaussian, Inc.),
 the Gaussian 88(TM) system (copyright 1988, Gaussian, Inc.),
 the Gaussian 86(TM) system (copyright 1986, Carnegie Mellon
 University), and the Gaussian 82(TM) system (copyright 1983,
 Carnegie Mellon University). Gaussian is a federally registered
 trademark of Gaussian, Inc.
  
 This software contains proprietary and confidential information,
 including trade secrets, belonging to Gaussian, Inc.
  
 This software is provided under written license and may be
 used, copied, transmitted, or stored only in accord with that
 written license.
  
 The following legend is applicable only to US Government
 contracts under FAR:
  
                    RESTRICTED RIGHTS LEGEND
  
 Use, reproduction and disclosure by the US Government is
 subject to restrictions as set forth in subparagraphs (a)
 and (c) of the Commercial Computer Software - Restricted
 Rights clause in FAR 52.227-19.
  
 Gaussian, Inc.
 340 Quinnipiac St., Bldg. 40, Wallingford CT 06492
  
  
 ---------------------------------------------------------------
 Warning -- This program may not be used in any manner that
 competes with the business of Gaussian, Inc. or will provide
 assistance to any competitor of Gaussian, Inc.  The licensee
 of this program is prohibited from giving any competitor of
 Gaussian, Inc. access to this program.  By using this program,
 the user acknowledges that Gaussian, Inc. is engaged in the
 business of creating and licensing software in the field of
 computational chemistry and represents and warrants to the
 licensee that it is not a competitor of Gaussian, Inc. and that
 it will not use this program in any manner prohibited above.
 ---------------------------------------------------------------
  

 Cite this work as:
 Gaussian 16, Revision C.01,
 M. J. Frisch, G. W. Trucks, H. B. Schlegel, G. E. Scuseria, 
 M. A. Robb, J. R. Cheeseman, G. Scalmani, V. Barone, 
 G. A. Petersson, H. Nakatsuji, X. Li, M. Caricato, A. V. Marenich, 
 J. Bloino, B. G. Janesko, R. Gomperts, B. Mennucci, H. P. Hratchian, 
 J. V. Ortiz, A. F. Izmaylov, J. L. Sonnenberg, D. Williams-Young, 
 F. Ding, F. Lipparini, F. Egidi, J. Goings, B. Peng, A. Petrone, 
 T. Henderson, D. Ranasinghe, V. G. Zakrzewski, J. Gao, N. Rega, 
 G. Zheng, W. Liang, M. Hada, M. Ehara, K. Toyota, R. Fukuda, 
 J. Hasegawa, M. Ishida, T. Nakajima, Y. Honda, O. Kitao, H. Nakai, 
 T. Vreven, K. Throssell, J. A. Montgomery, Jr., J. E. Peralta, 
 F. Ogliaro, M. J. Bearpark, J. J. Heyd, E. N. Brothers, K. N. Kudin, 
 V. N. Staroverov, T. A. Keith, R. Kobayashi, J. Normand, 
 K. Raghavachari, A. P. Rendell, J. C. Burant, S. S. Iyengar, 
 J. Tomasi, M. Cossi, J. M. Millam, M. Klene, C. Adamo, R. Cammi, 
 J. W. Ochterski, R. L. Martin, K. Morokuma, O. Farkas, 
 J. B. Foresman, and D. J. Fox, Gaussian, Inc., Wallingford CT, 2019.
 
 ******************************************
 Gaussian 16:  ES64L-G16RevC.01  3-Jul-2019
                10-Jun-2022 
 ******************************************
 %Chk="water.chk"
 %Rwf="water.rwf"
 %NProcShared=4
 Will use up to    4 processors via shared memory.
 %Mem=10GB
 ----------------------------------------------------------------------
 #p Opt Freq PBE1PBE/6-31G(d,p) SCRF=(Solvent=Toluene) EmpiricalDispers
 ion=(GD3BJ) Symmetry=(Tight) Population=(Regular) Density=(Current)
 ----------------------------------------------------------------------
 1/18=20,19=15,26=3,38=1/1,3;
 2/9=110,12=2,40=1/2;
 3/5=1,6=6,7=101,11=2,25=1,30=1,70=2201,71=1,72=13,74=-13,124=41/1,2,3;
 4//1;
 5/5=2,38=5,53=13/2;
 6/22=-1,28=1/1;
 7//1,2,3,16;
 1/18=20,19=15,26=3/3(2);
 2/9=110/2;
 99//99;
 2/9=110/2;
 3/5=1,6=6,7=101,11=2,25=1,30=1,70=2205,71=1,72=13,74=-13,124=41/1,2,3;
 4/5=5,16=3,69=1/1;
 5/5=2,38=5,53=13/2;
 7//1,2,3,16;
 1/18=20,19=15,26=3/3(-5);
 2/9=110/2;
 6/19=2,22=-1,28=1/1;
 99/9=1/99;
 Leave Link    1 at Fri Jun 10 11:07:55 2022, MaxMem=  1342177280 cpu:               0.9 elap:               0.4
 (Enter /gpfs1/apps/software/Gaussian16/AVX/g16/l101.exe)
 -----------------------------------------------------------------
 water_Optimisation_Frequencies_PBE1PBE__GD3BJ__Toluene_6_31G_d_p_
 -----------------------------------------------------------------
 Symbolic Z-matrix:
 Charge =  0 Multiplicity = 1
 O                     0.        0.        0.13662 
 H                     0.        0.76823  -0.54649 
 H                     0.       -0.76823  -0.54649 
 
 ITRead=  0  0  0
 MicOpt= -1 -1 -1
 NAtoms=      3 NQM=        3 NQMF=       0 NMMI=      0 NMMIF=      0
                NMic=       0 NMicF=      0.
                    Isotopes and Nuclear Properties:
 (Nuclear quadrupole moments (NQMom) in fm**2, nuclear magnetic moments (NMagM)
  in nuclear magnetons)

  Atom         1           2           3
 IAtWgt=          16           1           1
 AtmWgt=  15.9949146   1.0078250   1.0078250
 NucSpn=           0           1           1
 AtZEff=  -0.0000000  -0.0000000  -0.0000000
 NQMom=    0.0000000   0.0000000   0.0000000
 NMagM=    0.0000000   2.7928460   2.7928460
 AtZNuc=   8.0000000   1.0000000   1.0000000
 Leave Link  101 at Fri Jun 10 11:08:00 2022, MaxMem=  1342177280 cpu:               2.0 elap:               2.0
 (Enter /gpfs1/apps/software/Gaussian16/AVX/g16/l103.exe)

 GradGradGradGradGradGradGradGradGradGradGradGradGradGradGradGradGradGrad
 Berny optimization.
 Initialization pass.
                           ----------------------------
                           !    Initial Parameters    !
                           ! (Angstroms and Degrees)  !
 --------------------------                            --------------------------
 ! Name  Definition              Value          Derivative Info.                !
 --------------------------------------------------------------------------------
 ! R1    R(1,2)                  1.028          estimate D2E/DX2                !
 ! R2    R(1,3)                  1.028          estimate D2E/DX2                !
 ! A1    A(2,1,3)               96.713          estimate D2E/DX2                !
 --------------------------------------------------------------------------------
 Trust Radius=3.00D-01 FncErr=1.00D-07 GrdErr=1.00D-06 EigMax=2.50D+02 EigMin=1.00D-04
 Number of steps in this run=     20 maximum allowed number of steps=    100.
 GradGradGradGradGradGradGradGradGradGradGradGradGradGradGradGradGradGrad

 Leave Link  103 at Fri Jun 10 11:08:02 2022, MaxMem=  1342177280 cpu:               0.1 elap:               0.1
 (Enter /gpfs1/apps/software/Gaussian16/AVX/g16/l202.exe)
                          Input orientation:                          
 ---------------------------------------------------------------------
 Center     Atomic      Atomic             Coordinates (Angstroms)
 Number     Number       Type             X           Y           Z
 ---------------------------------------------------------------------
      1          8           0        0.000000    0.000000    0.136620
      2          1           0        0.000000    0.768230   -0.546490
      3          1           0        0.000000   -0.768230   -0.546490
 ---------------------------------------------------------------------
                    Distance matrix (angstroms):
                    1          2          3
     1  O    0.000000
     2  H    1.028016   0.000000
     3  H    1.028016   1.536460   0.000000
 Stoichiometry    H2O
 Framework group  C2V[C2(O),SGV(H2)]
 Deg. of freedom     2
 Full point group                 C2V     NOp   4
 Largest Abelian subgroup         C2V     NOp   4
 Largest concise Abelian subgroup C2      NOp   2
                         Standard orientation:                         
 ---------------------------------------------------------------------
 Center     Atomic      Atomic             Coordinates (Angstroms)
 Number     Number       Type             X           Y           Z
 ---------------------------------------------------------------------
      1          8           0        0.000000   -0.000000    0.136622
      2          1           0        0.000000    0.768230   -0.546488
      3          1           0       -0.000000   -0.768230   -0.546488
 ---------------------------------------------------------------------
 Rotational constants (GHZ):         605.0150503         424.8342630         249.5812928
 Leave Link  202 at Fri Jun 10 11:08:05 2022, MaxMem=  1342177280 cpu:               0.3 elap:               0.3
 (Enter /gpfs1/apps/software/Gaussian16/AVX/g16/l301.exe)
 Standard basis: 6-31G(d,p) (6D, 7F)
 Ernie: Thresh=  0.10000D-02 Tol=  0.10000D-05 Strict=F.
 There are    12 symmetry adapted cartesian basis functions of A1  symmetry.
 There are     2 symmetry adapted cartesian basis functions of A2  symmetry.
 There are     4 symmetry adapted cartesian basis functions of B1  symmetry.
 There are     7 symmetry adapted cartesian basis functions of B2  symmetry.
 There are    12 symmetry adapted basis functions of A1  symmetry.
 There are     2 symmetry adapted basis functions of A2  symmetry.
 There are     4 symmetry adapted basis functions of B1  symmetry.
 There are     7 symmetry adapted basis functions of B2  symmetry.
    25 basis functions,    42 primitive gaussians,    25 cartesian basis functions
     5 alpha electrons        5 beta electrons
       nuclear repulsion energy         8.5805073971 Hartrees.
 IExCor= 1009 DFT=T Ex+Corr=PBE1PBE ExCW=0 ScaHFX=  0.250000
 ScaDFX=  0.750000  0.750000  1.000000  1.000000 ScalE2=  1.000000  1.000000
 IRadAn=      5 IRanWt=     -1 IRanGd=            0 ICorTp=0 IEmpDi=141
 NAtoms=    3 NActive=    3 NUniq=    2 SFac= 2.25D+00 NAtFMM=   60 NAOKFM=F Big=F
 Integral buffers will be    131072 words long.
 Raffenetti 2 integral format.
 Two-electron integral symmetry is turned on.
 R6Disp:  Grimme-D3(BJ) Dispersion energy=       -0.0002774275 Hartrees.
 Nuclear repulsion after empirical dispersion term =        8.5802299696 Hartrees.
 ------------------------------------------------------------------------------
 Polarizable Continuum Model (PCM)
 =================================
 Model                : PCM.
 Atomic radii         : UFF (Universal Force Field).
 Polarization charges : Total charges.
 Charge compensation  : None.
 Solution method      : On-the-fly selection.
 Cavity type          : Scaled VdW (van der Waals Surface) (Alpha=1.100).
 Cavity algorithm     : GePol (No added spheres)
                        Default sphere list used, NSphG=    3.
                        Lebedev-Laikov grids with approx.  5.0 points / Ang**2.
                        Smoothing algorithm: York/Karplus (Gamma=1.0000).
                        Polarization charges: spherical gaussians, with
                                              point-specific exponents (IZeta= 3).
                        Self-potential: point-specific (ISelfS= 7).
                        Self-field    : sphere-specific E.n sum rule (ISelfD= 2).
 1st derivatives      : Analytical E(r).r(x)/FMM algorithm (CHGder, D1EAlg=3).
                        Cavity 1st derivative terms included.
 Solvent              : Toluene, Eps=   2.374100 Eps(inf)=   2.238315
 ------------------------------------------------------------------------------
 Spheres list:
 ISph  on   Nord     Re0    Alpha      Xe            Ye            Ze
    1   O      1    1.7500  1.100      0.000000     -0.000000      0.136622
    2   H      2    1.4430  1.100      0.000000      0.768230     -0.546488
    3   H      3    1.4430  1.100     -0.000000     -0.768230     -0.546488
 ------------------------------------------------------------------------------
 GePol: Number of generator spheres                  =       3
 GePol: Total number of spheres                      =       3
 GePol: Number of exposed spheres                    =       3 (100.00%)
 GePol: Number of points                             =     384
 GePol: Average weight of points                     =       0.15
 GePol: Minimum weight of points                     =   0.68D-06
 GePol: Maximum weight of points                     =    0.20212
 GePol: Number of points with low weight             =      11
 GePol: Fraction of low-weight points (<1% of avg)   =       2.86%
 GePol: Cavity surface area                          =     56.549 Ang**2
 GePol: Cavity volume                                =     38.316 Ang**3
 Leave Link  301 at Fri Jun 10 11:08:07 2022, MaxMem=  1342177280 cpu:               0.5 elap:               0.4
 (Enter /gpfs1/apps/software/Gaussian16/AVX/g16/l302.exe)
 NPDir=0 NMtPBC=     1 NCelOv=     1 NCel=       1 NClECP=     1 NCelD=      1
         NCelK=      1 NCelE2=     1 NClLst=     1 CellRange=     0.0.
 One-electron integrals computed using PRISM.
 One-electron integral symmetry used in STVInt
 NBasis=    25 RedAO= T EigKep=  2.42D-02  NBF=    12     2     4     7
 NBsUse=    25 1.00D-06 EigRej= -1.00D+00 NBFU=    12     2     4     7
 Precomputing XC quadrature grid using
 IXCGrd= 4 IRadAn=           5 IRanWt=          -1 IRanGd=           0 AccXCQ= 0.00D+00.
 Generated NRdTot=       0 NPtTot=           0 NUsed=           0 NTot=          32
 NSgBfM=    25    25    25    25    25 MxSgAt=     3 MxSgA2=     3.
 Leave Link  302 at Fri Jun 10 11:08:10 2022, MaxMem=  1342177280 cpu:               1.7 elap:               0.7
 (Enter /gpfs1/apps/software/Gaussian16/AVX/g16/l303.exe)
 DipDrv:  MaxL=1.
 Leave Link  303 at Fri Jun 10 11:08:14 2022, MaxMem=  1342177280 cpu:               0.2 elap:               0.1
 (Enter /gpfs1/apps/software/Gaussian16/AVX/g16/l401.exe)
 ExpMin= 1.61D-01 ExpMax= 5.48D+03 ExpMxC= 8.25D+02 IAcc=3 IRadAn=         5 AccDes= 0.00D+00
 Harris functional with IExCor= 1009 and IRadAn=       5 diagonalized for initial guess.
 HarFok:  IExCor= 1009 AccDes= 0.00D+00 IRadAn=         5 IDoV= 1 UseB2=F ITyADJ=14
 ICtDFT=  3500011 ScaDFX=  1.000000  1.000000  1.000000  1.000000
 FoFCou: FMM=F IPFlag=           0 FMFlag=      100000 FMFlg1=           0
         NFxFlg=           0 DoJE=T BraDBF=F KetDBF=T FulRan=T
         wScrn=  0.000000 ICntrl=       500 IOpCl=  0 I1Cent=   200000004 NGrid=           0
         NMat0=    1 NMatS0=      1 NMatT0=    0 NMatD0=    1 NMtDS0=    0 NMtDT0=    0
 Petite list used in FoFCou.
 Harris En= -76.3738101427110    
 JPrj=0 DoOrth=F DoCkMO=F.
 Initial guess orbital symmetries:
       Occupied  (A1) (A1) (B2) (A1) (B1)
       Virtual   (A1) (B2) (B2) (A1) (B1) (A1) (B2) (A1) (A1) (A2)
                 (B1) (A1) (B2) (B2) (A2) (B1) (A1) (A1) (B2) (A1)
 The electronic state of the initial guess is 1-A1.
 Leave Link  401 at Fri Jun 10 11:08:21 2022, MaxMem=  1342177280 cpu:               1.8 elap:               0.8
 (Enter /gpfs1/apps/software/Gaussian16/AVX/g16/l502.exe)
 Keep R1 ints in memory in symmetry-blocked form, NReq=3508177.
 FoFCou: FMM=F IPFlag=           0 FMFlag=           0 FMFlg1=           0
         NFxFlg=           0 DoJE=F BraDBF=F KetDBF=F FulRan=T
         wScrn=  0.000000 ICntrl=       600 IOpCl=  0 I1Cent=           0 NGrid=           0
         NMat0=    1 NMatS0=    325 NMatT0=    0 NMatD0=    1 NMtDS0=    0 NMtDT0=    0
 Petite list used in FoFCou.
 Closed shell SCF:
 Using DIIS extrapolation, IDIIS=  1040.
 NGot=  1342177280 LenX=  1342159073 LenY=  1342158007
 Requested convergence on RMS density matrix=1.00D-08 within 128 cycles.
 Requested convergence on MAX density matrix=1.00D-06.
 Requested convergence on             energy=1.00D-06.
 No special actions if energy rises.

 Cycle   1  Pass 1  IDiag  1:
 Inv3:  Mode=1 IEnd=      442368.
 Iteration    1 A*A^-1 deviation from unit magnitude is 2.89D-15 for    377.
 Iteration    1 A*A^-1 deviation from orthogonality  is 8.84D-16 for    377    333.
 Iteration    1 A^-1*A deviation from unit magnitude is 2.89D-15 for    377.
 Iteration    1 A^-1*A deviation from orthogonality  is 8.51D-16 for    378    262.
 E= -76.2704403015365    
 DIIS: error= 5.57D-02 at cycle   1 NSaved=   1.
 NSaved= 1 IEnMin= 1 EnMin= -76.2704403015365     IErMin= 1 ErrMin= 5.57D-02
 ErrMax= 5.57D-02  0.00D+00 EMaxC= 1.00D-01 BMatC= 8.23D-02 BMatP= 8.23D-02
 IDIUse=3 WtCom= 4.43D-01 WtEn= 5.57D-01
 Coeff-Com:  0.100D+01
 Coeff-En:   0.100D+01
 Coeff:      0.100D+01
 Gap=     0.254 Goal=   None    Shift=    0.000
 GapD=    0.254 DampG=1.000 DampE=0.500 DampFc=0.5000 IDamp=-1.
 Damping current iteration by 5.00D-01
 RMSDP=1.85D-02 MaxDP=1.81D-01              OVMax= 1.88D-01

 Cycle   2  Pass 1  IDiag  1:
 E= -76.2928036838408     Delta-E=       -0.022363382304 Rises=F Damp=T
 DIIS: error= 1.30D-02 at cycle   2 NSaved=   2.
 NSaved= 2 IEnMin= 2 EnMin= -76.2928036838408     IErMin= 2 ErrMin= 1.30D-02
 ErrMax= 1.30D-02  0.00D+00 EMaxC= 1.00D-01 BMatC= 5.23D-03 BMatP= 8.23D-02
 IDIUse=3 WtCom= 8.70D-01 WtEn= 1.30D-01
 Coeff-Com:  0.175D+00 0.825D+00
 Coeff-En:   0.283D+00 0.717D+00
 Coeff:      0.189D+00 0.811D+00
 Gap=     0.365 Goal=   None    Shift=    0.000
 RMSDP=2.00D-03 MaxDP=2.72D-02 DE=-2.24D-02 OVMax= 1.03D-01

 Cycle   3  Pass 1  IDiag  1:
 E= -76.3328721334997     Delta-E=       -0.040068449659 Rises=F Damp=F
 DIIS: error= 1.80D-03 at cycle   3 NSaved=   3.
 NSaved= 3 IEnMin= 3 EnMin= -76.3328721334997     IErMin= 3 ErrMin= 1.80D-03
 ErrMax= 1.80D-03  0.00D+00 EMaxC= 1.00D-01 BMatC= 9.68D-05 BMatP= 5.23D-03
 IDIUse=3 WtCom= 9.82D-01 WtEn= 1.80D-02
 Coeff-Com:  0.269D-01-0.235D-01 0.997D+00
 Coeff-En:   0.000D+00 0.000D+00 0.100D+01
 Coeff:      0.264D-01-0.231D-01 0.997D+00
 Gap=     0.375 Goal=   None    Shift=    0.000
 RMSDP=2.59D-04 MaxDP=3.23D-03 DE=-4.01D-02 OVMax= 2.29D-03

 Cycle   4  Pass 1  IDiag  1:
 E= -76.3329384945670     Delta-E=       -0.000066361067 Rises=F Damp=F
 DIIS: error= 2.76D-04 at cycle   4 NSaved=   4.
 NSaved= 4 IEnMin= 4 EnMin= -76.3329384945670     IErMin= 4 ErrMin= 2.76D-04
 ErrMax= 2.76D-04  0.00D+00 EMaxC= 1.00D-01 BMatC= 1.91D-06 BMatP= 9.68D-05
 IDIUse=3 WtCom= 9.97D-01 WtEn= 2.76D-03
 Coeff-Com:  0.557D-02-0.159D-01 0.227D+00 0.783D+00
 Coeff-En:   0.000D+00 0.000D+00 0.000D+00 0.100D+01
 Coeff:      0.556D-02-0.159D-01 0.227D+00 0.784D+00
 Gap=     0.375 Goal=   None    Shift=    0.000
 RMSDP=2.64D-05 MaxDP=2.21D-04 DE=-6.64D-05 OVMax= 2.77D-04

 Cycle   5  Pass 1  IDiag  1:
 E= -76.3329398587698     Delta-E=       -0.000001364203 Rises=F Damp=F
 DIIS: error= 3.59D-05 at cycle   5 NSaved=   5.
 NSaved= 5 IEnMin= 5 EnMin= -76.3329398587698     IErMin= 5 ErrMin= 3.59D-05
 ErrMax= 3.59D-05  0.00D+00 EMaxC= 1.00D-01 BMatC= 3.40D-08 BMatP= 1.91D-06
 IDIUse=1 WtCom= 1.00D+00 WtEn= 0.00D+00
 Coeff-Com:  0.190D-03 0.207D-03-0.137D-01-0.388D-01 0.105D+01
 Coeff:      0.190D-03 0.207D-03-0.137D-01-0.388D-01 0.105D+01
 Gap=     0.375 Goal=   None    Shift=    0.000
 RMSDP=5.08D-06 MaxDP=6.49D-05 DE=-1.36D-06 OVMax= 4.43D-05

 Cycle   6  Pass 1  IDiag  1:
 E= -76.3329398832882     Delta-E=       -0.000000024518 Rises=F Damp=F
 DIIS: error= 5.66D-07 at cycle   6 NSaved=   6.
 NSaved= 6 IEnMin= 6 EnMin= -76.3329398832882     IErMin= 6 ErrMin= 5.66D-07
 ErrMax= 5.66D-07  0.00D+00 EMaxC= 1.00D-01 BMatC= 6.80D-12 BMatP= 3.40D-08
 IDIUse=1 WtCom= 1.00D+00 WtEn= 0.00D+00
 Coeff-Com: -0.311D-04 0.164D-04 0.218D-03 0.966D-03-0.636D-01 0.106D+01
 Coeff:     -0.311D-04 0.164D-04 0.218D-03 0.966D-03-0.636D-01 0.106D+01
 Gap=     0.375 Goal=   None    Shift=    0.000
 RMSDP=2.29D-07 MaxDP=1.31D-06 DE=-2.45D-08 OVMax= 2.89D-06

 Cycle   7  Pass 1  IDiag  1:
 E= -76.3329398833037     Delta-E=       -0.000000000015 Rises=F Damp=F
 DIIS: error= 1.03D-07 at cycle   7 NSaved=   7.
 NSaved= 7 IEnMin= 7 EnMin= -76.3329398833037     IErMin= 7 ErrMin= 1.03D-07
 ErrMax= 1.03D-07  0.00D+00 EMaxC= 1.00D-01 BMatC= 2.06D-13 BMatP= 6.80D-12
 IDIUse=1 WtCom= 1.00D+00 WtEn= 0.00D+00
 Coeff-Com:  0.132D-05-0.201D-05 0.402D-04 0.179D-03-0.246D-02-0.423D-01
 Coeff-Com:  0.104D+01
 Coeff:      0.132D-05-0.201D-05 0.402D-04 0.179D-03-0.246D-02-0.423D-01
 Coeff:      0.104D+01
 Gap=     0.375 Goal=   None    Shift=    0.000
 RMSDP=1.46D-08 MaxDP=1.50D-07 DE=-1.55D-11 OVMax= 1.52D-07

 Cycle   8  Pass 1  IDiag  1:
 E= -76.3329398833039     Delta-E=       -0.000000000000 Rises=F Damp=F
 DIIS: error= 2.98D-09 at cycle   8 NSaved=   8.
 NSaved= 8 IEnMin= 8 EnMin= -76.3329398833039     IErMin= 8 ErrMin= 2.98D-09
 ErrMax= 2.98D-09  0.00D+00 EMaxC= 1.00D-01 BMatC= 2.07D-16 BMatP= 2.06D-13
 IDIUse=1 WtCom= 1.00D+00 WtEn= 0.00D+00
 Coeff-Com:  0.742D-07 0.119D-08-0.304D-05-0.185D-04 0.494D-03-0.111D-02
 Coeff-Com: -0.849D-01 0.109D+01
 Coeff:      0.742D-07 0.119D-08-0.304D-05-0.185D-04 0.494D-03-0.111D-02
 Coeff:     -0.849D-01 0.109D+01
 Gap=     0.375 Goal=   None    Shift=    0.000
 RMSDP=1.51D-09 MaxDP=1.34D-08 DE=-2.27D-13 OVMax= 1.86D-08

 Error on total polarization charges =  0.00128
 SCF Done:  E(RPBE1PBE) =  -76.3329398833     A.U. after    8 cycles
            NFock=  8  Conv=0.15D-08     -V/T= 2.0099
 KE= 7.558561586551D+01 PE=-1.976151038939D+02 EE= 3.711631817557D+01
 Leave Link  502 at Fri Jun 10 11:08:26 2022, MaxMem=  1342177280 cpu:               5.5 elap:               1.8
 (Enter /gpfs1/apps/software/Gaussian16/AVX/g16/l601.exe)
 Copying SCF densities to generalized density rwf, IOpCl= 0 IROHF=0.

 **********************************************************************

            Population analysis using the SCF Density.

 **********************************************************************

 Orbital symmetries:
       Occupied  (A1) (A1) (B2) (A1) (B1)
       Virtual   (A1) (B2) (B2) (A1) (A1) (B1) (B2) (A1) (A1) (A2)
                 (B1) (A1) (B2) (B2) (A2) (B1) (A1) (A1) (B2) (A1)
 The electronic state is 1-A1.
 Alpha  occ. eigenvalues --  -19.22447  -1.00271  -0.49288  -0.39627  -0.30453
 Alpha virt. eigenvalues --    0.07063   0.14866   0.74208   0.80263   0.90551
 Alpha virt. eigenvalues --    0.91294   1.03474   1.21016   1.49582   1.55152
 Alpha virt. eigenvalues --    1.62798   2.17441   2.22848   2.37102   2.54983
 Alpha virt. eigenvalues --    2.64881   2.89245   3.24422   3.51921   3.66896
     Molecular Orbital Coefficients:
                           1         2         3         4         5
                        (A1)--O   (A1)--O   (B2)--O   (A1)--O   (B1)--O
     Eigenvalues --   -19.22447  -1.00271  -0.49288  -0.39627  -0.30453
   1 1   O  1S          0.99320  -0.21093   0.00000  -0.08591   0.00000
   2        2S          0.02551   0.47341   0.00000   0.17679   0.00000
   3        2PX         0.00000   0.00000   0.00000   0.00000   0.64164
   4        2PY         0.00000   0.00000   0.51167   0.00000   0.00000
   5        2PZ        -0.00112  -0.10915   0.00000   0.53698   0.00000
   6        3S          0.00859   0.44343   0.00000   0.38987   0.00000
   7        3PX         0.00000   0.00000   0.00000   0.00000   0.49937
   8        3PY         0.00000   0.00000   0.27917   0.00000   0.00000
   9        3PZ         0.00003  -0.04574   0.00000   0.35843   0.00000
  10        4XX        -0.00701  -0.00602   0.00000   0.00045   0.00000
  11        4YY        -0.00697   0.00427   0.00000  -0.00206   0.00000
  12        4ZZ        -0.00697   0.00742   0.00000  -0.04211   0.00000
  13        4XY         0.00000   0.00000   0.00000   0.00000   0.00000
  14        4XZ         0.00000   0.00000   0.00000   0.00000  -0.02799
  15        4YZ         0.00000   0.00000  -0.02960   0.00000   0.00000
  16 2   H  1S          0.00029   0.13444   0.23096  -0.15606   0.00000
  17        2S         -0.00081   0.01709   0.16212  -0.12099   0.00000
  18        3PX         0.00000   0.00000   0.00000   0.00000   0.01989
  19        3PY         0.00009  -0.01847  -0.00547   0.01279   0.00000
  20        3PZ        -0.00008   0.01261   0.01654   0.00719   0.00000
  21 3   H  1S          0.00029   0.13444  -0.23096  -0.15606   0.00000
  22        2S         -0.00081   0.01709  -0.16212  -0.12099   0.00000
  23        3PX         0.00000   0.00000   0.00000   0.00000   0.01989
  24        3PY        -0.00009   0.01847  -0.00547  -0.01279   0.00000
  25        3PZ        -0.00008   0.01261  -0.01654   0.00719   0.00000
                           6         7         8         9        10
                        (A1)--V   (B2)--V   (B2)--V   (A1)--V   (A1)--V
     Eigenvalues --     0.07063   0.14866   0.74208   0.80263   0.90551
   1 1   O  1S         -0.09476   0.00000   0.00000  -0.02737  -0.00029
   2        2S          0.12887   0.00000   0.00000   0.16552  -0.96877
   3        2PX         0.00000   0.00000   0.00000   0.00000   0.00000
   4        2PY         0.00000  -0.42311   0.16884   0.00000   0.00000
   5        2PZ        -0.30680   0.00000   0.00000  -0.64142  -0.51280
   6        3S          1.09061   0.00000   0.00000  -0.45298   1.76407
   7        3PX         0.00000   0.00000   0.00000   0.00000   0.00000
   8        3PY         0.00000  -0.69822   0.06960   0.00000   0.00000
   9        3PZ        -0.49574   0.00000   0.00000   0.56545   0.68212
  10        4XX        -0.04549   0.00000   0.00000   0.13111  -0.36344
  11        4YY        -0.04361   0.00000   0.00000  -0.18128  -0.23485
  12        4ZZ        -0.02219   0.00000   0.00000  -0.09198  -0.31333
  13        4XY         0.00000   0.00000   0.00000   0.00000   0.00000
  14        4XZ         0.00000   0.00000   0.00000   0.00000   0.00000
  15        4YZ         0.00000   0.00392   0.24596   0.00000   0.00000
  16 2   H  1S         -0.10730   0.13965  -0.78330  -0.60577   0.41487
  17        2S         -0.89551   1.15536   0.91848   0.68113  -0.42919
  18        3PX         0.00000   0.00000   0.00000   0.00000   0.00000
  19        3PY        -0.00731   0.00194  -0.03219  -0.13790   0.01002
  20        3PZ         0.00519  -0.00825   0.07997   0.07354   0.04202
  21 3   H  1S         -0.10730  -0.13965   0.78330  -0.60577   0.41487
  22        2S         -0.89551  -1.15536  -0.91848   0.68113  -0.42919
  23        3PX         0.00000   0.00000   0.00000   0.00000   0.00000
  24        3PY         0.00731   0.00194  -0.03219   0.13790  -0.01002
  25        3PZ         0.00519   0.00825  -0.07997   0.07354   0.04202
     Density Matrix:
                           1         2         3         4         5
   1 1   O  1S          2.07663
   2        2S         -0.17942   0.51205
   3        2PX         0.00000   0.00000   0.82341
   4        2PY         0.00000   0.00000   0.00000   0.52362
   5        2PZ        -0.04845   0.08646   0.00000   0.00000   0.60053
   6        3S         -0.23698   0.55814   0.00000   0.00000   0.32189
   7        3PX         0.00000   0.00000   0.64084   0.00000  -0.00000
   8        3PY         0.00000   0.00000   0.00000   0.28568   0.00000
   9        3PZ        -0.04223   0.08342   0.00000   0.00000   0.39492
  10        4XX        -0.01146  -0.00590   0.00000   0.00000   0.00181
  11        4YY        -0.01530   0.00296  -0.00000  -0.00000  -0.00313
  12        4ZZ        -0.00975  -0.00822   0.00000  -0.00000  -0.04682
  13        4XY         0.00000  -0.00000  -0.00000   0.00000   0.00000
  14        4XZ         0.00000   0.00000  -0.03591  -0.00000   0.00000
  15        4YZ        -0.00000  -0.00000  -0.00000  -0.03029  -0.00000
  16 2   H  1S         -0.02933   0.07213  -0.00000   0.23635  -0.19695
  17        2S          0.01197  -0.02664  -0.00000   0.16591  -0.13367
  18        3PX        -0.00000   0.00000   0.02552   0.00000  -0.00000
  19        3PY         0.00577  -0.01296   0.00000  -0.00560   0.01777
  20        3PZ        -0.00671   0.01448  -0.00000   0.01692   0.00497
  21 3   H  1S         -0.02933   0.07213   0.00000  -0.23635  -0.19695
  22        2S          0.01197  -0.02664   0.00000  -0.16591  -0.13367
  23        3PX         0.00000  -0.00000   0.02552   0.00000   0.00000
  24        3PY        -0.00577   0.01296   0.00000  -0.00560  -0.01777
  25        3PZ        -0.00671   0.01448   0.00000  -0.01692   0.00497
                           6         7         8         9        10
   6        3S          0.69741
   7        3PX         0.00000   0.49875
   8        3PY         0.00000   0.00000   0.15587
   9        3PZ         0.23891   0.00000   0.00000   0.26112
  10        4XX        -0.00511   0.00000   0.00000   0.00087   0.00017
  11        4YY         0.00206  -0.00000  -0.00000  -0.00187   0.00004
  12        4ZZ        -0.02637   0.00000  -0.00000  -0.03086  -0.00003
  13        4XY        -0.00000  -0.00000   0.00000   0.00000   0.00000
  14        4XZ         0.00000  -0.02795  -0.00000   0.00000  -0.00000
  15        4YZ        -0.00000  -0.00000  -0.01653  -0.00000   0.00000
  16 2   H  1S         -0.00245  -0.00000   0.12895  -0.12417  -0.00176
  17        2S         -0.07920  -0.00000   0.09052  -0.08830  -0.00030
  18        3PX         0.00000   0.01986   0.00000  -0.00000  -0.00000
  19        3PY        -0.00640   0.00000  -0.00306   0.01086   0.00023
  20        3PZ         0.01679  -0.00000   0.00923   0.00400  -0.00014
  21 3   H  1S         -0.00245   0.00000  -0.12895  -0.12417  -0.00176
  22        2S         -0.07920   0.00000  -0.09052  -0.08830  -0.00030
  23        3PX        -0.00000   0.01986   0.00000   0.00000   0.00000
  24        3PY         0.00640   0.00000  -0.00306  -0.01086  -0.00023
  25        3PZ         0.01679   0.00000  -0.00923   0.00400  -0.00014
                          11        12        13        14        15
  11        4YY         0.00014
  12        4ZZ         0.00033   0.00375
  13        4XY        -0.00000  -0.00000   0.00000
  14        4XZ        -0.00000  -0.00000   0.00000   0.00157
  15        4YZ         0.00000   0.00000  -0.00000   0.00000   0.00175
  16 2   H  1S          0.00179   0.01513  -0.00000   0.00000  -0.01367
  17        2S          0.00066   0.01045  -0.00000   0.00000  -0.00960
  18        3PX         0.00000   0.00000  -0.00000  -0.00111  -0.00000
  19        3PY        -0.00021  -0.00135   0.00000  -0.00000   0.00032
  20        3PZ         0.00008  -0.00042  -0.00000   0.00000  -0.00098
  21 3   H  1S          0.00179   0.01513  -0.00000  -0.00000   0.01367
  22        2S          0.00066   0.01045  -0.00000  -0.00000   0.00960
  23        3PX        -0.00000  -0.00000   0.00000  -0.00111  -0.00000
  24        3PY         0.00021   0.00135  -0.00000  -0.00000   0.00032
  25        3PZ         0.00008  -0.00042  -0.00000  -0.00000   0.00098
                          16        17        18        19        20
  16 2   H  1S          0.19154
  17        2S          0.11725   0.08243
  18        3PX         0.00000   0.00000   0.00079
  19        3PY        -0.01149  -0.00550  -0.00000   0.00107
  20        3PZ         0.00879   0.00405   0.00000  -0.00046   0.00097
  21 3   H  1S         -0.02183  -0.03253   0.00000  -0.00643  -0.00649
  22        2S         -0.03253  -0.02270   0.00000  -0.00195  -0.00667
  23        3PX        -0.00000  -0.00000   0.00079   0.00000  -0.00000
  24        3PY         0.00643   0.00195   0.00000  -0.00095   0.00010
  25        3PZ        -0.00649  -0.00667  -0.00000  -0.00010  -0.00013
                          21        22        23        24        25
  21 3   H  1S          0.19154
  22        2S          0.11725   0.08243
  23        3PX        -0.00000  -0.00000   0.00079
  24        3PY         0.01149   0.00550  -0.00000   0.00107
  25        3PZ         0.00879   0.00405  -0.00000   0.00046   0.00097
    Full Mulliken population analysis:
                           1         2         3         4         5
   1 1   O  1S          2.07663
   2        2S         -0.04193   0.51205
   3        2PX         0.00000   0.00000   0.82341
   4        2PY         0.00000   0.00000   0.00000   0.52362
   5        2PZ         0.00000   0.00000   0.00000   0.00000   0.60053
   6        3S         -0.03964   0.42622   0.00000   0.00000   0.00000
   7        3PX         0.00000   0.00000   0.32139   0.00000   0.00000
   8        3PY         0.00000   0.00000   0.00000   0.14328   0.00000
   9        3PZ         0.00000   0.00000   0.00000   0.00000   0.19806
  10        4XX        -0.00038  -0.00322   0.00000   0.00000   0.00000
  11        4YY        -0.00051   0.00162   0.00000   0.00000   0.00000
  12        4ZZ        -0.00033  -0.00450   0.00000   0.00000   0.00000
  13        4XY         0.00000  -0.00000   0.00000   0.00000   0.00000
  14        4XZ        -0.00000  -0.00000   0.00000   0.00000   0.00000
  15        4YZ        -0.00000  -0.00000   0.00000   0.00000   0.00000
  16 2   H  1S         -0.00076   0.01465   0.00000   0.04353   0.03225
  17        2S          0.00076  -0.00946   0.00000   0.01833   0.01313
  18        3PX        -0.00000   0.00000   0.00277   0.00000   0.00000
  19        3PY        -0.00017   0.00274   0.00000   0.00082   0.00402
  20        3PZ        -0.00017   0.00273   0.00000   0.00383  -0.00046
  21 3   H  1S         -0.00076   0.01465   0.00000   0.04353   0.03225
  22        2S          0.00076  -0.00946   0.00000   0.01833   0.01313
  23        3PX         0.00000   0.00000   0.00277   0.00000   0.00000
  24        3PY        -0.00017   0.00274   0.00000   0.00082   0.00402
  25        3PZ        -0.00017   0.00273   0.00000   0.00383  -0.00046
                           6         7         8         9        10
   6        3S          0.69741
   7        3PX         0.00000   0.49875
   8        3PY         0.00000   0.00000   0.15587
   9        3PZ         0.00000   0.00000   0.00000   0.26112
  10        4XX        -0.00357   0.00000   0.00000   0.00000   0.00017
  11        4YY         0.00144   0.00000   0.00000   0.00000   0.00001
  12        4ZZ        -0.01844   0.00000   0.00000   0.00000  -0.00001
  13        4XY        -0.00000   0.00000   0.00000   0.00000   0.00000
  14        4XZ        -0.00000   0.00000   0.00000   0.00000   0.00000
  15        4YZ        -0.00000   0.00000   0.00000   0.00000   0.00000
  16 2   H  1S         -0.00095   0.00000   0.05473   0.04686  -0.00025
  17        2S         -0.05150   0.00000   0.03321   0.02881  -0.00011
  18        3PX         0.00000   0.00495   0.00000   0.00000   0.00000
  19        3PY         0.00120   0.00000  -0.00007   0.00220  -0.00002
  20        3PZ         0.00281   0.00000   0.00187   0.00028  -0.00001
  21 3   H  1S         -0.00095   0.00000   0.05473   0.04686  -0.00025
  22        2S         -0.05150   0.00000   0.03321   0.02881  -0.00011
  23        3PX         0.00000   0.00495   0.00000   0.00000   0.00000
  24        3PY         0.00120   0.00000  -0.00007   0.00220  -0.00002
  25        3PZ         0.00281   0.00000   0.00187   0.00028  -0.00001
                          11        12        13        14        15
  11        4YY         0.00014
  12        4ZZ         0.00011   0.00375
  13        4XY        -0.00000  -0.00000   0.00000
  14        4XZ         0.00000   0.00000   0.00000   0.00157
  15        4YZ         0.00000   0.00000   0.00000   0.00000   0.00175
  16 2   H  1S          0.00061   0.00455   0.00000   0.00000   0.00429
  17        2S          0.00027   0.00426   0.00000  -0.00000   0.00063
  18        3PX         0.00000   0.00000  -0.00000   0.00025   0.00000
  19        3PY         0.00002   0.00045   0.00000   0.00000   0.00007
  20        3PZ         0.00003  -0.00001   0.00000   0.00000   0.00014
  21 3   H  1S          0.00061   0.00455  -0.00000   0.00000   0.00429
  22        2S          0.00027   0.00426  -0.00000   0.00000   0.00063
  23        3PX         0.00000   0.00000  -0.00000   0.00025   0.00000
  24        3PY         0.00002   0.00045   0.00000   0.00000   0.00007
  25        3PZ         0.00003  -0.00001   0.00000   0.00000   0.00014
                          16        17        18        19        20
  16 2   H  1S          0.19154
  17        2S          0.07718   0.08243
  18        3PX         0.00000   0.00000   0.00079
  19        3PY         0.00000   0.00000   0.00000   0.00107
  20        3PZ         0.00000   0.00000  -0.00000  -0.00000   0.00097
  21 3   H  1S         -0.00104  -0.00708   0.00000   0.00037   0.00000
  22        2S         -0.00708  -0.01150   0.00000   0.00025   0.00000
  23        3PX         0.00000   0.00000   0.00001   0.00000   0.00000
  24        3PY         0.00037   0.00025   0.00000   0.00008  -0.00000
  25        3PZ         0.00000   0.00000   0.00000   0.00000  -0.00000
                          21        22        23        24        25
  21 3   H  1S          0.19154
  22        2S          0.07718   0.08243
  23        3PX         0.00000   0.00000   0.00079
  24        3PY         0.00000   0.00000  -0.00000   0.00107
  25        3PZ         0.00000   0.00000   0.00000   0.00000   0.00097
     Gross orbital populations:
                           1
   1 1   O  1S          1.99317
   2        2S          0.91155
   3        2PX         1.15035
   4        2PY         0.79992
   5        2PZ         0.89649
   6        3S          0.96654
   7        3PX         0.83004
   8        3PY         0.47862
   9        3PZ         0.61547
  10        4XX        -0.00780
  11        4YY         0.00469
  12        4ZZ        -0.00092
  13        4XY         0.00000
  14        4XZ         0.00207
  15        4YZ         0.01200
  16 2   H  1S          0.46048
  17        2S          0.17963
  18        3PX         0.00877
  19        3PY         0.01304
  20        3PZ         0.01198
  21 3   H  1S          0.46048
  22        2S          0.17963
  23        3PX         0.00877
  24        3PY         0.01304
  25        3PZ         0.01198
          Condensed to atoms (all electrons):
               1          2          3
     1  O    8.115976   0.268107   0.268107
     2  H    0.268107   0.431168  -0.025371
     3  H    0.268107  -0.025371   0.431168
 Mulliken charges:
               1
     1  O   -0.652191
     2  H    0.326096
     3  H    0.326096
 Sum of Mulliken charges =  -0.00000
 Mulliken charges with hydrogens summed into heavy atoms:
               1
     1  O   -0.000000
 Electronic spatial extent (au):  <R**2>=             19.8528
 Charge=             -0.0000 electrons
 Dipole moment (field-independent basis, Debye):
    X=             -0.0000    Y=              0.0000    Z=             -2.3207  Tot=              2.3207
 Quadrupole moment (field-independent basis, Debye-Ang):
   XX=             -7.2844   YY=             -4.4139   ZZ=             -5.7487
   XY=              0.0000   XZ=              0.0000   YZ=              0.0000
 Traceless Quadrupole moment (field-independent basis, Debye-Ang):
   XX=             -1.4687   YY=              1.4018   ZZ=              0.0670
   XY=              0.0000   XZ=              0.0000   YZ=              0.0000
 Octapole moment (field-independent basis, Debye-Ang**2):
  XXX=              0.0000  YYY=             -0.0000  ZZZ=             -1.4224  XYY=             -0.0000
  XXY=              0.0000  XXZ=             -0.3126  XZZ=             -0.0000  YZZ=              0.0000
  YYZ=             -1.4387  XYZ=             -0.0000
 Hexadecapole moment (field-independent basis, Debye-Ang**3):
 XXXX=             -5.2934 YYYY=             -6.5068 ZZZZ=             -6.7422 XXXY=             -0.0000
 XXXZ=             -0.0000 YYYX=             -0.0000 YYYZ=              0.0000 ZZZX=             -0.0000
 ZZZY=             -0.0000 XXYY=             -2.2351 XXZZ=             -2.0970 YYZZ=             -1.6876
 XXYZ=             -0.0000 YYXZ=              0.0000 ZZXY=              0.0000
 N-N= 8.580229969568D+00 E-N=-1.976151039140D+02  KE= 7.558561586551D+01
 Symmetry A1   KE= 6.754435397551D+01
 Symmetry A2   KE= 1.071416702541D-36
 Symmetry B1   KE= 4.568126276458D+00
 Symmetry B2   KE= 3.473135613539D+00
 Orbital energies and kinetic energies (alpha):
                                 1                 2
   1         (A1)--O         -19.224466         29.051685
   2         (A1)--O          -1.002709          2.576799
   3         (B2)--O          -0.492875          1.736568
   4         (A1)--O          -0.396267          2.143693
   5         (B1)--O          -0.304529          2.284063
   6         (A1)--V           0.070633          1.230076
   7         (B2)--V           0.148663          1.333511
   8         (B2)--V           0.742082          1.949557
   9         (A1)--V           0.802635          2.932569
  10         (A1)--V           0.905508          2.501879
 Total kinetic energy from orbitals= 7.558561586551D+01
 No NMR shielding tensors so no spin-rotation constants.
 Leave Link  601 at Fri Jun 10 11:08:30 2022, MaxMem=  1342177280 cpu:               1.9 elap:               1.0
 (Enter /gpfs1/apps/software/Gaussian16/AVX/g16/l701.exe)
 ... and contract with generalized density number  0.
 Compute integral first derivatives.
 R6Disp: Adding Grimme-D3(BJ) dispersion energy 1st derivatives to the gradient.
 D1PCM: PCM CHGder 1st derivatives, ID1Alg=3 FixD1E=F DoIter=F DoCFld=F I1PDM=0.
 GePol: Maximum number of non-zero 1st derivatives   =     250
 Leave Link  701 at Fri Jun 10 11:08:34 2022, MaxMem=  1342177280 cpu:               4.7 elap:               1.7
 (Enter /gpfs1/apps/software/Gaussian16/AVX/g16/l702.exe)
 L702 exits ... SP integral derivatives will be done elsewhere.
 Leave Link  702 at Fri Jun 10 11:08:37 2022, MaxMem=  1342177280 cpu:               0.2 elap:               0.2
 (Enter /gpfs1/apps/software/Gaussian16/AVX/g16/l703.exe)
 Integral derivatives from FoFJK, PRISM(SPDF).
 Compute integral first derivatives, UseDBF=F ICtDFT=           0.
 Calling FoFJK, ICntrl=      2127 FMM=F ISym2X=1 I1Cent= 0 IOpClX= 0 NMat=1 NMatS=1 NMatT=0.
 FoFJK:  IHMeth= 1 ICntrl=    2127 DoSepK=F KAlg= 0 I1Cent=           0 FoldK=F
 IRaf=         0 NMat=       1 IRICut=       1 DoRegI=T DoRafI=F ISym2E= 1 IDoP0=0 IntGTp=1.
 FoFCou: FMM=F IPFlag=           0 FMFlag=      100000 FMFlg1=         800
         NFxFlg=           0 DoJE=F BraDBF=F KetDBF=F FulRan=T
         wScrn=  0.000000 ICntrl=      2127 IOpCl=  0 I1Cent=           0 NGrid=           0
         NMat0=    1 NMatS0=      1 NMatT0=    0 NMatD0=    1 NMtDS0=    0 NMtDT0=    0
 Petite list used in FoFCou.
 Leave Link  703 at Fri Jun 10 11:08:41 2022, MaxMem=  1342177280 cpu:               2.2 elap:               1.1
 (Enter /gpfs1/apps/software/Gaussian16/AVX/g16/l716.exe)
 Dipole        =-5.43881239D-17 0.00000000D+00-9.13017629D-01
 ***** Axes restored to original set *****
 -------------------------------------------------------------------
 Center     Atomic                   Forces (Hartrees/Bohr)
 Number     Number              X              Y              Z
 -------------------------------------------------------------------
      1        8          -0.000000000   -0.000000000   -0.077955415
      2        1           0.000000000   -0.033915417    0.038977707
      3        1           0.000000000    0.033915417    0.038977707
 -------------------------------------------------------------------
 Cartesian Forces:  Max     0.077955415 RMS     0.035615354
 Leave Link  716 at Fri Jun 10 11:08:45 2022, MaxMem=  1342177280 cpu:               0.3 elap:               0.2
 (Enter /gpfs1/apps/software/Gaussian16/AVX/g16/l103.exe)

 GradGradGradGradGradGradGradGradGradGradGradGradGradGradGradGradGradGrad
 Berny optimization.
 FormGI is forming the generalized inverse of G from B-inverse, IUseBI=4.
 Internal  Forces:  Max     0.051245224 RMS     0.042489618
 Search for a local minimum.
 Step number   1 out of a maximum of   20
 All quantities printed in internal units (Hartrees-Bohrs-Radians)
 RMS Force = .42490D-01 SwitMx=.10000D-02 MixMth= 1
 Mixed Optimization -- RFO/linear search
 Second derivative matrix not updated -- first step.
 The second derivative matrix:
                          R1        R2        A1
           R1           0.43083
           R2           0.00000   0.43083
           A1           0.00000   0.00000   0.16000
 ITU=  0
     Eigenvalues ---    0.16000   0.43083   0.43083
 RFO step:  Lambda=-1.27881200D-02 EMin= 1.60000000D-01
 Linear search not attempted -- first point.
 Iteration  1 RMS(Cart)=  0.06901232 RMS(Int)=  0.00291327
 Iteration  2 RMS(Cart)=  0.00330430 RMS(Int)=  0.00000443
 Iteration  3 RMS(Cart)=  0.00000297 RMS(Int)=  0.00000000
 Iteration  4 RMS(Cart)=  0.00000000 RMS(Int)=  0.00000000
 ITry= 1 IFail=0 DXMaxC= 8.54D-02 DCOld= 1.00D+10 DXMaxT= 3.00D-01 DXLimC= 3.00D+00 Rises=F
 ClnCor:  largest displacement from symmetrization is 4.58D-16 for atom     3.
 Variable       Old X    -DE/DX   Delta X   Delta X   Delta X     New X
                                 (Linear)    (Quad)   (Total)
    R1        1.94267  -0.05125   0.00000  -0.11552  -0.11552   1.82715
    R2        1.94267  -0.05125   0.00000  -0.11552  -0.11552   1.82715
    A1        1.68796   0.01280   0.00000   0.07411   0.07411   1.76207
         Item               Value     Threshold  Converged?
 Maximum Force            0.051245     0.000450     NO 
 RMS     Force            0.042490     0.000300     NO 
 Maximum Displacement     0.085449     0.001800     NO 
 RMS     Displacement     0.069590     0.001200     NO 
 Predicted change in Energy=-6.599816D-03
 Lowest energy point so far.  Saving SCF results.
 GradGradGradGradGradGradGradGradGradGradGradGradGradGradGradGradGradGrad

 Leave Link  103 at Fri Jun 10 11:08:45 2022, MaxMem=  1342177280 cpu:               0.6 elap:               0.3
 (Enter /gpfs1/apps/software/Gaussian16/AVX/g16/l202.exe)
                          Input orientation:                          
 ---------------------------------------------------------------------
 Center     Atomic      Atomic             Coordinates (Angstroms)
 Number     Number       Type             X           Y           Z
 ---------------------------------------------------------------------
      1          8           0        0.000000    0.000000    0.091402
      2          1           0        0.000000    0.745854   -0.523881
      3          1           0       -0.000000   -0.745854   -0.523881
 ---------------------------------------------------------------------
                    Distance matrix (angstroms):
                    1          2          3
     1  O    0.000000
     2  H    0.966888   0.000000
     3  H    0.966888   1.491708   0.000000
 Stoichiometry    H2O
 Framework group  C2V[C2(O),SGV(H2)]
 Deg. of freedom     2
 Full point group                 C2V     NOp   4
 RotChk:  IX=0 Diff= 5.87D-16
 Largest Abelian subgroup         C2V     NOp   4
 Largest concise Abelian subgroup C2      NOp   2
                         Standard orientation:                         
 ---------------------------------------------------------------------
 Center     Atomic      Atomic             Coordinates (Angstroms)
 Number     Number       Type             X           Y           Z
 ---------------------------------------------------------------------
      1          8           0        0.000000   -0.000000    0.123057
      2          1           0        0.000000    0.745854   -0.492227
      3          1           0       -0.000000   -0.745854   -0.492227
 ---------------------------------------------------------------------
 Rotational constants (GHZ):         745.7565203         450.7071180         280.9260233
 Leave Link  202 at Fri Jun 10 11:08:45 2022, MaxMem=  1342177280 cpu:               0.2 elap:               0.2
 (Enter /gpfs1/apps/software/Gaussian16/AVX/g16/l301.exe)
 Standard basis: 6-31G(d,p) (6D, 7F)
 Ernie: Thresh=  0.10000D-02 Tol=  0.10000D-05 Strict=F.
 There are    12 symmetry adapted cartesian basis functions of A1  symmetry.
 There are     2 symmetry adapted cartesian basis functions of A2  symmetry.
 There are     4 symmetry adapted cartesian basis functions of B1  symmetry.
 There are     7 symmetry adapted cartesian basis functions of B2  symmetry.
 There are    12 symmetry adapted basis functions of A1  symmetry.
 There are     2 symmetry adapted basis functions of A2  symmetry.
 There are     4 symmetry adapted basis functions of B1  symmetry.
 There are     7 symmetry adapted basis functions of B2  symmetry.
    25 basis functions,    42 primitive gaussians,    25 cartesian basis functions
     5 alpha electrons        5 beta electrons
       nuclear repulsion energy         9.1115386244 Hartrees.
 IExCor= 1009 DFT=T Ex+Corr=PBE1PBE ExCW=0 ScaHFX=  0.250000
 ScaDFX=  0.750000  0.750000  1.000000  1.000000 ScalE2=  1.000000  1.000000
 IRadAn=      5 IRanWt=     -1 IRanGd=            0 ICorTp=0 IEmpDi=141
 NAtoms=    3 NActive=    3 NUniq=    2 SFac= 2.25D+00 NAtFMM=   60 NAOKFM=F Big=F
 Integral buffers will be    131072 words long.
 Raffenetti 2 integral format.
 Two-electron integral symmetry is turned on.
 R6Disp:  Grimme-D3(BJ) Dispersion energy=       -0.0002769396 Hartrees.
 Nuclear repulsion after empirical dispersion term =        9.1112616848 Hartrees.
 ------------------------------------------------------------------------------
 Polarizable Continuum Model (PCM)
 =================================
 Model                : PCM.
 Atomic radii         : UFF (Universal Force Field).
 Polarization charges : Total charges.
 Charge compensation  : None.
 Solution method      : On-the-fly selection.
 Cavity type          : Scaled VdW (van der Waals Surface) (Alpha=1.100).
 Cavity algorithm     : GePol (No added spheres)
                        Default sphere list used, NSphG=    3.
                        Lebedev-Laikov grids with approx.  5.0 points / Ang**2.
                        Smoothing algorithm: York/Karplus (Gamma=1.0000).
                        Polarization charges: spherical gaussians, with
                                              point-specific exponents (IZeta= 3).
                        Self-potential: point-specific (ISelfS= 7).
                        Self-field    : sphere-specific E.n sum rule (ISelfD= 2).
 1st derivatives      : Analytical E(r).r(x)/FMM algorithm (CHGder, D1EAlg=3).
                        Cavity 1st derivative terms included.
 Solvent              : Toluene, Eps=   2.374100 Eps(inf)=   2.238315
 ------------------------------------------------------------------------------
 Spheres list:
 ISph  on   Nord     Re0    Alpha      Xe            Ye            Ze
    1   O      1    1.7500  1.100      0.000000     -0.000000      0.123057
    2   H      2    1.4430  1.100     -0.000000      0.745854     -0.492227
    3   H      3    1.4430  1.100     -0.000000     -0.745854     -0.492227
 ------------------------------------------------------------------------------
 GePol: Number of generator spheres                  =       3
 GePol: Total number of spheres                      =       3
 GePol: Number of exposed spheres                    =       3 (100.00%)
 GePol: Number of points                             =     384
 GePol: Average weight of points                     =       0.14
 GePol: Minimum weight of points                     =   0.31D-03
 GePol: Maximum weight of points                     =    0.20212
 GePol: Number of points with low weight             =       9
 GePol: Fraction of low-weight points (<1% of avg)   =       2.34%
 GePol: Cavity surface area                          =     55.490 Ang**2
 GePol: Cavity volume                                =     37.408 Ang**3
 Leave Link  301 at Fri Jun 10 11:08:46 2022, MaxMem=  1342177280 cpu:               0.3 elap:               0.3
 (Enter /gpfs1/apps/software/Gaussian16/AVX/g16/l302.exe)
 NPDir=0 NMtPBC=     1 NCelOv=     1 NCel=       1 NClECP=     1 NCelD=      1
         NCelK=      1 NCelE2=     1 NClLst=     1 CellRange=     0.0.
 One-electron integrals computed using PRISM.
 One-electron integral symmetry used in STVInt
 NBasis=    25 RedAO= T EigKep=  2.22D-02  NBF=    12     2     4     7
 NBsUse=    25 1.00D-06 EigRej= -1.00D+00 NBFU=    12     2     4     7
 Precomputing XC quadrature grid using
 IXCGrd= 4 IRadAn=           5 IRanWt=          -1 IRanGd=           0 AccXCQ= 0.00D+00.
 Generated NRdTot=       0 NPtTot=           0 NUsed=           0 NTot=          32
 NSgBfM=    25    25    25    25    25 MxSgAt=     3 MxSgA2=     3.
 Leave Link  302 at Fri Jun 10 11:08:46 2022, MaxMem=  1342177280 cpu:               0.9 elap:               0.9
 (Enter /gpfs1/apps/software/Gaussian16/AVX/g16/l303.exe)
 DipDrv:  MaxL=1.
 Leave Link  303 at Fri Jun 10 11:08:47 2022, MaxMem=  1342177280 cpu:               0.4 elap:               0.4
 (Enter /gpfs1/apps/software/Gaussian16/AVX/g16/l401.exe)
 Initial guess from the checkpoint file:  "water.chk"
 B after Tr=     0.000000    0.000000   -0.000000
         Rot=    1.000000    0.000000    0.000000   -0.000000 Ang=   0.00 deg.
 Guess basis will be translated and rotated to current coordinates.
 JPrj=2 DoOrth=T DoCkMO=T.
 Initial guess orbital symmetries:
       Occupied  (A1) (A1) (B2) (A1) (B1)
       Virtual   (A1) (B2) (B2) (A1) (A1) (B1) (B2) (A1) (A1) (A2)
                 (B1) (A1) (B2) (B2) (A2) (B1) (A1) (A1) (B2) (A1)
 The electronic state of the initial guess is 1-A1.
 Generating alternative initial guess.
 ExpMin= 1.61D-01 ExpMax= 5.48D+03 ExpMxC= 8.25D+02 IAcc=3 IRadAn=         5 AccDes= 0.00D+00
 Harris functional with IExCor= 1009 and IRadAn=       5 diagonalized for initial guess.
 HarFok:  IExCor= 1009 AccDes= 0.00D+00 IRadAn=         5 IDoV= 1 UseB2=F ITyADJ=14
 ICtDFT=  3500011 ScaDFX=  1.000000  1.000000  1.000000  1.000000
 FoFCou: FMM=F IPFlag=           0 FMFlag=      100000 FMFlg1=           0
         NFxFlg=           0 DoJE=T BraDBF=F KetDBF=T FulRan=T
         wScrn=  0.000000 ICntrl=       500 IOpCl=  0 I1Cent=   200000004 NGrid=           0
         NMat0=    1 NMatS0=      1 NMatT0=    0 NMatD0=    1 NMtDS0=    0 NMtDT0=    0
 Petite list used in FoFCou.
 Harris En= -76.3843405357726    
 Leave Link  401 at Fri Jun 10 11:08:47 2022, MaxMem=  1342177280 cpu:               0.8 elap:               0.4
 (Enter /gpfs1/apps/software/Gaussian16/AVX/g16/l502.exe)
 Keep R1 ints in memory in symmetry-blocked form, NReq=3508177.
 FoFCou: FMM=F IPFlag=           0 FMFlag=           0 FMFlg1=           0
         NFxFlg=           0 DoJE=F BraDBF=F KetDBF=F FulRan=T
         wScrn=  0.000000 ICntrl=       600 IOpCl=  0 I1Cent=           0 NGrid=           0
         NMat0=    1 NMatS0=    325 NMatT0=    0 NMatD0=    1 NMtDS0=    0 NMtDT0=    0
 Petite list used in FoFCou.
 Closed shell SCF:
 Using DIIS extrapolation, IDIIS=  1040.
 NGot=  1342177280 LenX=  1342159073 LenY=  1342158007
 Requested convergence on RMS density matrix=1.00D-08 within 128 cycles.
 Requested convergence on MAX density matrix=1.00D-06.
 Requested convergence on             energy=1.00D-06.
 No special actions if energy rises.

 Cycle   1  Pass 1  IDiag  1:
 Inv3:  Mode=1 IEnd=      442368.
 Iteration    1 A*A^-1 deviation from unit magnitude is 2.89D-15 for     85.
 Iteration    1 A*A^-1 deviation from orthogonality  is 1.50D-15 for    281      9.
 Iteration    1 A^-1*A deviation from unit magnitude is 2.22D-15 for     85.
 Iteration    1 A^-1*A deviation from orthogonality  is 7.52D-16 for    367    287.
 E= -76.3380787129559    
 DIIS: error= 8.99D-03 at cycle   1 NSaved=   1.
 NSaved= 1 IEnMin= 1 EnMin= -76.3380787129559     IErMin= 1 ErrMin= 8.99D-03
 ErrMax= 8.99D-03  0.00D+00 EMaxC= 1.00D-01 BMatC= 1.92D-03 BMatP= 1.92D-03
 IDIUse=3 WtCom= 9.10D-01 WtEn= 8.99D-02
 Coeff-Com:  0.100D+01
 Coeff-En:   0.100D+01
 Coeff:      0.100D+01
 Gap=     0.420 Goal=   None    Shift=    0.000
 GapD=    0.420 DampG=2.000 DampE=1.000 DampFc=2.0000 IDamp=-1.
 RMSDP=2.58D-03 MaxDP=2.16D-02              OVMax= 2.76D-02

 Cycle   2  Pass 1  IDiag  1:
 E= -76.3399209388186     Delta-E=       -0.001842225863 Rises=F Damp=F
 DIIS: error= 5.22D-03 at cycle   2 NSaved=   2.
 NSaved= 2 IEnMin= 2 EnMin= -76.3399209388186     IErMin= 2 ErrMin= 5.22D-03
 ErrMax= 5.22D-03  0.00D+00 EMaxC= 1.00D-01 BMatC= 7.82D-04 BMatP= 1.92D-03
 IDIUse=3 WtCom= 9.48D-01 WtEn= 5.22D-02
 Coeff-Com:  0.337D+00 0.663D+00
 Coeff-En:   0.000D+00 0.100D+01
 Coeff:      0.320D+00 0.680D+00
 Gap=     0.392 Goal=   None    Shift=    0.000
 RMSDP=9.83D-04 MaxDP=9.88D-03 DE=-1.84D-03 OVMax= 9.39D-03

 Cycle   3  Pass 1  IDiag  1:
 E= -76.3402988516854     Delta-E=       -0.000377912867 Rises=F Damp=F
 DIIS: error= 2.75D-03 at cycle   3 NSaved=   3.
 NSaved= 3 IEnMin= 3 EnMin= -76.3402988516854     IErMin= 3 ErrMin= 2.75D-03
 ErrMax= 2.75D-03  0.00D+00 EMaxC= 1.00D-01 BMatC= 2.23D-04 BMatP= 7.82D-04
 IDIUse=3 WtCom= 9.73D-01 WtEn= 2.75D-02
 Coeff-Com: -0.110D-01 0.345D+00 0.666D+00
 Coeff-En:   0.000D+00 0.225D+00 0.775D+00
 Coeff:     -0.107D-01 0.342D+00 0.669D+00
 Gap=     0.397 Goal=   None    Shift=    0.000
 RMSDP=4.14D-04 MaxDP=3.79D-03 DE=-3.78D-04 OVMax= 4.43D-03

 Cycle   4  Pass 1  IDiag  1:
 E= -76.3404578078864     Delta-E=       -0.000158956201 Rises=F Damp=F
 DIIS: error= 2.25D-04 at cycle   4 NSaved=   4.
 NSaved= 4 IEnMin= 4 EnMin= -76.3404578078864     IErMin= 4 ErrMin= 2.25D-04
 ErrMax= 2.25D-04  0.00D+00 EMaxC= 1.00D-01 BMatC= 1.33D-06 BMatP= 2.23D-04
 IDIUse=3 WtCom= 9.98D-01 WtEn= 2.25D-03
 Coeff-Com: -0.918D-02 0.488D-01 0.147D+00 0.814D+00
 Coeff-En:   0.000D+00 0.000D+00 0.000D+00 0.100D+01
 Coeff:     -0.916D-02 0.487D-01 0.146D+00 0.814D+00
 Gap=     0.397 Goal=   None    Shift=    0.000
 RMSDP=2.77D-05 MaxDP=2.13D-04 DE=-1.59D-04 OVMax= 3.39D-04

 Cycle   5  Pass 1  IDiag  1:
 E= -76.3404588308456     Delta-E=       -0.000001022959 Rises=F Damp=F
 DIIS: error= 1.36D-05 at cycle   5 NSaved=   5.
 NSaved= 5 IEnMin= 5 EnMin= -76.3404588308456     IErMin= 5 ErrMin= 1.36D-05
 ErrMax= 1.36D-05  0.00D+00 EMaxC= 1.00D-01 BMatC= 4.81D-09 BMatP= 1.33D-06
 IDIUse=1 WtCom= 1.00D+00 WtEn= 0.00D+00
 Coeff-Com:  0.233D-03-0.776D-02-0.136D-01-0.955D-03 0.102D+01
 Coeff:      0.233D-03-0.776D-02-0.136D-01-0.955D-03 0.102D+01
 Gap=     0.397 Goal=   None    Shift=    0.000
 RMSDP=5.42D-06 MaxDP=4.06D-05 DE=-1.02D-06 OVMax= 7.04D-05

 Cycle   6  Pass 1  IDiag  1:
 E= -76.3404588387885     Delta-E=       -0.000000007943 Rises=F Damp=F
 DIIS: error= 1.25D-06 at cycle   6 NSaved=   6.
 NSaved= 6 IEnMin= 6 EnMin= -76.3404588387885     IErMin= 6 ErrMin= 1.25D-06
 ErrMax= 1.25D-06  0.00D+00 EMaxC= 1.00D-01 BMatC= 3.12D-11 BMatP= 4.81D-09
 IDIUse=1 WtCom= 1.00D+00 WtEn= 0.00D+00
 Coeff-Com:  0.498D-04-0.163D-04-0.119D-03-0.486D-02-0.439D-01 0.105D+01
 Coeff:      0.498D-04-0.163D-04-0.119D-03-0.486D-02-0.439D-01 0.105D+01
 Gap=     0.397 Goal=   None    Shift=    0.000
 RMSDP=4.42D-07 MaxDP=3.16D-06 DE=-7.94D-09 OVMax= 5.03D-06

 Cycle   7  Pass 1  IDiag  1:
 E= -76.3404588388405     Delta-E=       -0.000000000052 Rises=F Damp=F
 DIIS: error= 1.22D-07 at cycle   7 NSaved=   7.
 NSaved= 7 IEnMin= 7 EnMin= -76.3404588388405     IErMin= 7 ErrMin= 1.22D-07
 ErrMax= 1.22D-07  0.00D+00 EMaxC= 1.00D-01 BMatC= 1.79D-13 BMatP= 3.12D-11
 IDIUse=1 WtCom= 1.00D+00 WtEn= 0.00D+00
 Coeff-Com: -0.366D-05 0.375D-04 0.745D-04 0.104D-04-0.326D-02-0.561D-01
 Coeff-Com:  0.106D+01
 Coeff:     -0.366D-05 0.375D-04 0.745D-04 0.104D-04-0.326D-02-0.561D-01
 Coeff:      0.106D+01
 Gap=     0.397 Goal=   None    Shift=    0.000
 RMSDP=2.93D-08 MaxDP=2.43D-07 DE=-5.20D-11 OVMax= 3.19D-07

 Cycle   8  Pass 1  IDiag  1:
 E= -76.3404588388408     Delta-E=       -0.000000000000 Rises=F Damp=F
 DIIS: error= 7.59D-09 at cycle   8 NSaved=   8.
 NSaved= 8 IEnMin= 8 EnMin= -76.3404588388408     IErMin= 8 ErrMin= 7.59D-09
 ErrMax= 7.59D-09  0.00D+00 EMaxC= 1.00D-01 BMatC= 1.69D-15 BMatP= 1.79D-13
 IDIUse=1 WtCom= 1.00D+00 WtEn= 0.00D+00
 Coeff-Com: -0.187D-07-0.677D-06-0.258D-05 0.353D-04 0.209D-03 0.628D-03
 Coeff-Com: -0.621D-01 0.106D+01
 Coeff:     -0.187D-07-0.677D-06-0.258D-05 0.353D-04 0.209D-03 0.628D-03
 Coeff:     -0.621D-01 0.106D+01
 Gap=     0.397 Goal=   None    Shift=    0.000
 RMSDP=1.20D-09 MaxDP=1.39D-08 DE=-2.70D-13 OVMax= 1.17D-08

 Error on total polarization charges =  0.00111
 SCF Done:  E(RPBE1PBE) =  -76.3404588388     A.U. after    8 cycles
            NFock=  8  Conv=0.12D-08     -V/T= 2.0075
 KE= 7.577097073875D+01 PE=-1.987704047803D+02 EE= 3.754771351788D+01
 Leave Link  502 at Fri Jun 10 11:08:48 2022, MaxMem=  1342177280 cpu:               3.4 elap:               0.9
 (Enter /gpfs1/apps/software/Gaussian16/AVX/g16/l701.exe)
 ... and contract with generalized density number  0.
 Compute integral first derivatives.
 R6Disp: Adding Grimme-D3(BJ) dispersion energy 1st derivatives to the gradient.
 D1PCM: PCM CHGder 1st derivatives, ID1Alg=3 FixD1E=F DoIter=F DoCFld=F I1PDM=0.
 GePol: Maximum number of non-zero 1st derivatives   =     258
 Leave Link  701 at Fri Jun 10 11:08:49 2022, MaxMem=  1342177280 cpu:               1.8 elap:               0.7
 (Enter /gpfs1/apps/software/Gaussian16/AVX/g16/l702.exe)
 L702 exits ... SP integral derivatives will be done elsewhere.
 Leave Link  702 at Fri Jun 10 11:08:49 2022, MaxMem=  1342177280 cpu:               0.2 elap:               0.2
 (Enter /gpfs1/apps/software/Gaussian16/AVX/g16/l703.exe)
 Integral derivatives from FoFJK, PRISM(SPDF).
 Compute integral first derivatives, UseDBF=F ICtDFT=           0.
 Calling FoFJK, ICntrl=      2127 FMM=F ISym2X=1 I1Cent= 0 IOpClX= 0 NMat=1 NMatS=1 NMatT=0.
 FoFJK:  IHMeth= 1 ICntrl=    2127 DoSepK=F KAlg= 0 I1Cent=           0 FoldK=F
 IRaf=         0 NMat=       1 IRICut=       1 DoRegI=T DoRafI=F ISym2E= 1 IDoP0=0 IntGTp=1.
 FoFCou: FMM=F IPFlag=           0 FMFlag=      100000 FMFlg1=         800
         NFxFlg=           0 DoJE=F BraDBF=F KetDBF=F FulRan=T
         wScrn=  0.000000 ICntrl=      2127 IOpCl=  0 I1Cent=           0 NGrid=           0
         NMat0=    1 NMatS0=      1 NMatT0=    0 NMatD0=    1 NMtDS0=    0 NMtDT0=    0
 Petite list used in FoFCou.
 Leave Link  703 at Fri Jun 10 11:08:50 2022, MaxMem=  1342177280 cpu:               1.0 elap:               0.4
 (Enter /gpfs1/apps/software/Gaussian16/AVX/g16/l716.exe)
 Dipole        =-5.17161417D-17 0.00000000D+00-8.73859954D-01
 ***** Axes restored to original set *****
 -------------------------------------------------------------------
 Center     Atomic                   Forces (Hartrees/Bohr)
 Number     Number              X              Y              Z
 -------------------------------------------------------------------
      1        8          -0.000000000    0.000000000   -0.011096777
      2        1           0.000000000   -0.000510912    0.005548388
      3        1           0.000000000    0.000510912    0.005548388
 -------------------------------------------------------------------
 Cartesian Forces:  Max     0.011096777 RMS     0.004536638
 Leave Link  716 at Fri Jun 10 11:08:50 2022, MaxMem=  1342177280 cpu:               0.2 elap:               0.2
 (Enter /gpfs1/apps/software/Gaussian16/AVX/g16/l103.exe)

 GradGradGradGradGradGradGradGradGradGradGradGradGradGradGradGradGradGrad
 Berny optimization.
 Using GEDIIS/GDIIS optimizer.
 FormGI is forming the generalized inverse of G from B-inverse, IUseBI=4.
 Internal  Forces:  Max     0.007226184 RMS     0.005260759
 Search for a local minimum.
 Step number   2 out of a maximum of   20
 All quantities printed in internal units (Hartrees-Bohrs-Radians)
 RMS Force = .52608D-02 SwitMx=.10000D-02 MixMth= 1
 Mixed Optimization -- RFO/linear search
 Update second derivatives using D2CorX and points    1    2
 DE= -7.52D-03 DEPred=-6.60D-03 R= 1.14D+00
 TightC=F SS=  1.41D+00  RLast= 1.79D-01 DXNew= 5.0454D-01 5.3816D-01
 Trust test= 1.14D+00 RLast= 1.79D-01 DXMaxT set to 5.05D-01
 The second derivative matrix:
                          R1        R2        A1
           R1           0.42807
           R2          -0.00276   0.42807
           A1           0.02441   0.02441   0.15138
 ITU=  1  0
 Use linear search instead of GDIIS.
     Eigenvalues ---    0.14710   0.42959   0.43083
 RFO step:  Lambda=-2.42008847D-04 EMin= 1.47099405D-01
 Quartic linear search produced a step of  0.10207.
 Iteration  1 RMS(Cart)=  0.02429495 RMS(Int)=  0.00042467
 Iteration  2 RMS(Cart)=  0.00041878 RMS(Int)=  0.00000003
 Iteration  3 RMS(Cart)=  0.00000003 RMS(Int)=  0.00000000
 ITry= 1 IFail=0 DXMaxC= 2.59D-02 DCOld= 1.00D+10 DXMaxT= 5.05D-01 DXLimC= 3.00D+00 Rises=F
 ClnCor:  largest displacement from symmetrization is 8.01D-16 for atom     3.
 Variable       Old X    -DE/DX   Delta X   Delta X   Delta X     New X
                                 (Linear)    (Quad)   (Total)
    R1        1.82715  -0.00392  -0.01179   0.00230  -0.00949   1.81766
    R2        1.82715  -0.00392  -0.01179   0.00230  -0.00949   1.81766
    A1        1.76207   0.00723   0.00756   0.03885   0.04641   1.80848
         Item               Value     Threshold  Converged?
 Maximum Force            0.007226     0.000450     NO 
 RMS     Force            0.005261     0.000300     NO 
 Maximum Displacement     0.025925     0.001800     NO 
 RMS     Displacement     0.024087     0.001200     NO 
 Predicted change in Energy=-2.300397D-04
 Lowest energy point so far.  Saving SCF results.
 GradGradGradGradGradGradGradGradGradGradGradGradGradGradGradGradGradGrad

 Leave Link  103 at Fri Jun 10 11:08:50 2022, MaxMem=  1342177280 cpu:               0.4 elap:               0.2
 (Enter /gpfs1/apps/software/Gaussian16/AVX/g16/l202.exe)
                          Input orientation:                          
 ---------------------------------------------------------------------
 Center     Atomic      Atomic             Coordinates (Angstroms)
 Number     Number       Type             X           Y           Z
 ---------------------------------------------------------------------
      1          8           0        0.000000   -0.000000    0.077683
      2          1           0        0.000000    0.755981   -0.517022
      3          1           0       -0.000000   -0.755981   -0.517022
 ---------------------------------------------------------------------
                    Distance matrix (angstroms):
                    1          2          3
     1  O    0.000000
     2  H    0.961863   0.000000
     3  H    0.961863   1.511962   0.000000
 Stoichiometry    H2O
 Framework group  C2V[C2(O),SGV(H2)]
 Deg. of freedom     2
 Full point group                 C2V     NOp   4
 RotChk:  IX=0 Diff= 1.97D-16
 Largest Abelian subgroup         C2V     NOp   4
 Largest concise Abelian subgroup C2      NOp   2
                         Standard orientation:                         
 ---------------------------------------------------------------------
 Center     Atomic      Atomic             Coordinates (Angstroms)
 Number     Number       Type             X           Y           Z
 ---------------------------------------------------------------------
      1          8           0       -0.000000    0.000000    0.118941
      2          1           0       -0.000000    0.755981   -0.475764
      3          1           0       -0.000000   -0.755981   -0.475764
 ---------------------------------------------------------------------
 Rotational constants (GHZ):         798.2596261         438.7129527         283.1160881
 Leave Link  202 at Fri Jun 10 11:08:50 2022, MaxMem=  1342177280 cpu:               0.2 elap:               0.2
 (Enter /gpfs1/apps/software/Gaussian16/AVX/g16/l301.exe)
 Standard basis: 6-31G(d,p) (6D, 7F)
 Ernie: Thresh=  0.10000D-02 Tol=  0.10000D-05 Strict=F.
 There are    12 symmetry adapted cartesian basis functions of A1  symmetry.
 There are     2 symmetry adapted cartesian basis functions of A2  symmetry.
 There are     4 symmetry adapted cartesian basis functions of B1  symmetry.
 There are     7 symmetry adapted cartesian basis functions of B2  symmetry.
 There are    12 symmetry adapted basis functions of A1  symmetry.
 There are     2 symmetry adapted basis functions of A2  symmetry.
 There are     4 symmetry adapted basis functions of B1  symmetry.
 There are     7 symmetry adapted basis functions of B2  symmetry.
    25 basis functions,    42 primitive gaussians,    25 cartesian basis functions
     5 alpha electrons        5 beta electrons
       nuclear repulsion energy         9.1525278825 Hartrees.
 IExCor= 1009 DFT=T Ex+Corr=PBE1PBE ExCW=0 ScaHFX=  0.250000
 ScaDFX=  0.750000  0.750000  1.000000  1.000000 ScalE2=  1.000000  1.000000
 IRadAn=      5 IRanWt=     -1 IRanGd=            0 ICorTp=0 IEmpDi=141
 NAtoms=    3 NActive=    3 NUniq=    2 SFac= 2.25D+00 NAtFMM=   60 NAOKFM=F Big=F
 Integral buffers will be    131072 words long.
 Raffenetti 2 integral format.
 Two-electron integral symmetry is turned on.
 R6Disp:  Grimme-D3(BJ) Dispersion energy=       -0.0002768853 Hartrees.
 Nuclear repulsion after empirical dispersion term =        9.1522509973 Hartrees.
 ------------------------------------------------------------------------------
 Polarizable Continuum Model (PCM)
 =================================
 Model                : PCM.
 Atomic radii         : UFF (Universal Force Field).
 Polarization charges : Total charges.
 Charge compensation  : None.
 Solution method      : On-the-fly selection.
 Cavity type          : Scaled VdW (van der Waals Surface) (Alpha=1.100).
 Cavity algorithm     : GePol (No added spheres)
                        Default sphere list used, NSphG=    3.
                        Lebedev-Laikov grids with approx.  5.0 points / Ang**2.
                        Smoothing algorithm: York/Karplus (Gamma=1.0000).
                        Polarization charges: spherical gaussians, with
                                              point-specific exponents (IZeta= 3).
                        Self-potential: point-specific (ISelfS= 7).
                        Self-field    : sphere-specific E.n sum rule (ISelfD= 2).
 1st derivatives      : Analytical E(r).r(x)/FMM algorithm (CHGder, D1EAlg=3).
                        Cavity 1st derivative terms included.
 Solvent              : Toluene, Eps=   2.374100 Eps(inf)=   2.238315
 ------------------------------------------------------------------------------
 Spheres list:
 ISph  on   Nord     Re0    Alpha      Xe            Ye            Ze
    1   O      1    1.7500  1.100     -0.000000      0.000000      0.118941
    2   H      2    1.4430  1.100     -0.000000      0.755981     -0.475764
    3   H      3    1.4430  1.100     -0.000000     -0.755981     -0.475764
 ------------------------------------------------------------------------------
 GePol: Number of generator spheres                  =       3
 GePol: Total number of spheres                      =       3
 GePol: Number of exposed spheres                    =       3 (100.00%)
 GePol: Number of points                             =     392
 GePol: Average weight of points                     =       0.14
 GePol: Minimum weight of points                     =   0.61D-07
 GePol: Maximum weight of points                     =    0.20212
 GePol: Number of points with low weight             =      13
 GePol: Fraction of low-weight points (<1% of avg)   =       3.32%
 GePol: Cavity surface area                          =     55.536 Ang**2
 GePol: Cavity volume                                =     37.403 Ang**3
 Leave Link  301 at Fri Jun 10 11:08:50 2022, MaxMem=  1342177280 cpu:               0.1 elap:               0.1
 (Enter /gpfs1/apps/software/Gaussian16/AVX/g16/l302.exe)
 NPDir=0 NMtPBC=     1 NCelOv=     1 NCel=       1 NClECP=     1 NCelD=      1
         NCelK=      1 NCelE2=     1 NClLst=     1 CellRange=     0.0.
 One-electron integrals computed using PRISM.
 One-electron integral symmetry used in STVInt
 NBasis=    25 RedAO= T EigKep=  2.20D-02  NBF=    12     2     4     7
 NBsUse=    25 1.00D-06 EigRej= -1.00D+00 NBFU=    12     2     4     7
 Precomputing XC quadrature grid using
 IXCGrd= 4 IRadAn=           5 IRanWt=          -1 IRanGd=           0 AccXCQ= 0.00D+00.
 Generated NRdTot=       0 NPtTot=           0 NUsed=           0 NTot=          32
 NSgBfM=    25    25    25    25    25 MxSgAt=     3 MxSgA2=     3.
 Leave Link  302 at Fri Jun 10 11:08:51 2022, MaxMem=  1342177280 cpu:               0.5 elap:               0.2
 (Enter /gpfs1/apps/software/Gaussian16/AVX/g16/l303.exe)
 DipDrv:  MaxL=1.
 Leave Link  303 at Fri Jun 10 11:08:51 2022, MaxMem=  1342177280 cpu:               0.2 elap:               0.1
 (Enter /gpfs1/apps/software/Gaussian16/AVX/g16/l401.exe)
 Initial guess from the checkpoint file:  "water.chk"
 B after Tr=    -0.000000    0.000000    0.000000
         Rot=    1.000000    0.000000    0.000000    0.000000 Ang=   0.00 deg.
 Guess basis will be translated and rotated to current coordinates.
 JPrj=2 DoOrth=T DoCkMO=T.
 Initial guess orbital symmetries:
       Occupied  (A1) (A1) (B2) (A1) (B1)
       Virtual   (A1) (B2) (B2) (A1) (A1) (B1) (B2) (A1) (A1) (A2)
                 (B1) (A1) (B2) (B2) (A2) (B1) (A1) (A1) (B2) (A1)
 The electronic state of the initial guess is 1-A1.
 Generating alternative initial guess.
 ExpMin= 1.61D-01 ExpMax= 5.48D+03 ExpMxC= 8.25D+02 IAcc=3 IRadAn=         5 AccDes= 0.00D+00
 Harris functional with IExCor= 1009 and IRadAn=       5 diagonalized for initial guess.
 HarFok:  IExCor= 1009 AccDes= 0.00D+00 IRadAn=         5 IDoV= 1 UseB2=F ITyADJ=14
 ICtDFT=  3500011 ScaDFX=  1.000000  1.000000  1.000000  1.000000
 FoFCou: FMM=F IPFlag=           0 FMFlag=      100000 FMFlg1=           0
         NFxFlg=           0 DoJE=T BraDBF=F KetDBF=T FulRan=T
         wScrn=  0.000000 ICntrl=       500 IOpCl=  0 I1Cent=   200000004 NGrid=           0
         NMat0=    1 NMatS0=      1 NMatT0=    0 NMatD0=    1 NMtDS0=    0 NMtDT0=    0
 Petite list used in FoFCou.
 Harris En= -76.3852555660012    
 Leave Link  401 at Fri Jun 10 11:08:51 2022, MaxMem=  1342177280 cpu:               0.7 elap:               0.2
 (Enter /gpfs1/apps/software/Gaussian16/AVX/g16/l502.exe)
 Keep R1 ints in memory in symmetry-blocked form, NReq=3508177.
 FoFCou: FMM=F IPFlag=           0 FMFlag=           0 FMFlg1=           0
         NFxFlg=           0 DoJE=F BraDBF=F KetDBF=F FulRan=T
         wScrn=  0.000000 ICntrl=       600 IOpCl=  0 I1Cent=           0 NGrid=           0
         NMat0=    1 NMatS0=    325 NMatT0=    0 NMatD0=    1 NMtDS0=    0 NMtDT0=    0
 Petite list used in FoFCou.
 Closed shell SCF:
 Using DIIS extrapolation, IDIIS=  1040.
 NGot=  1342177280 LenX=  1342159073 LenY=  1342158007
 Requested convergence on RMS density matrix=1.00D-08 within 128 cycles.
 Requested convergence on MAX density matrix=1.00D-06.
 Requested convergence on             energy=1.00D-06.
 No special actions if energy rises.

 Cycle   1  Pass 1  IDiag  1:
 Inv3:  Mode=1 IEnd=      460992.
 Iteration    1 A*A^-1 deviation from unit magnitude is 2.22D-15 for    257.
 Iteration    1 A*A^-1 deviation from orthogonality  is 1.77D-15 for    257     29.
 Iteration    1 A^-1*A deviation from unit magnitude is 2.22D-15 for    364.
 Iteration    1 A^-1*A deviation from orthogonality  is 7.46D-16 for    231    187.
 E= -76.3405661578239    
 DIIS: error= 1.55D-03 at cycle   1 NSaved=   1.
 NSaved= 1 IEnMin= 1 EnMin= -76.3405661578239     IErMin= 1 ErrMin= 1.55D-03
 ErrMax= 1.55D-03  0.00D+00 EMaxC= 1.00D-01 BMatC= 7.54D-05 BMatP= 7.54D-05
 IDIUse=3 WtCom= 9.85D-01 WtEn= 1.55D-02
 Coeff-Com:  0.100D+01
 Coeff-En:   0.100D+01
 Coeff:      0.100D+01
 Gap=     0.399 Goal=   None    Shift=    0.000
 GapD=    0.399 DampG=1.000 DampE=1.000 DampFc=1.0000 IDamp=-1.
 RMSDP=5.62D-04 MaxDP=4.84D-03              OVMax= 5.17D-03

 Cycle   2  Pass 1  IDiag  1:
 E= -76.3406581863372     Delta-E=       -0.000092028513 Rises=F Damp=F
 DIIS: error= 6.20D-04 at cycle   2 NSaved=   2.
 NSaved= 2 IEnMin= 2 EnMin= -76.3406581863372     IErMin= 2 ErrMin= 6.20D-04
 ErrMax= 6.20D-04  0.00D+00 EMaxC= 1.00D-01 BMatC= 1.07D-05 BMatP= 7.54D-05
 IDIUse=3 WtCom= 9.94D-01 WtEn= 6.20D-03
 Coeff-Com:  0.129D+00 0.871D+00
 Coeff-En:   0.000D+00 0.100D+01
 Coeff:      0.128D+00 0.872D+00
 Gap=     0.397 Goal=   None    Shift=    0.000
 RMSDP=1.44D-04 MaxDP=1.45D-03 DE=-9.20D-05 OVMax= 1.36D-03

 Cycle   3  Pass 1  IDiag  1:
 E= -76.3406590794875     Delta-E=       -0.000000893150 Rises=F Damp=F
 DIIS: error= 5.66D-04 at cycle   3 NSaved=   3.
 NSaved= 3 IEnMin= 3 EnMin= -76.3406590794875     IErMin= 3 ErrMin= 5.66D-04
 ErrMax= 5.66D-04  0.00D+00 EMaxC= 1.00D-01 BMatC= 9.47D-06 BMatP= 1.07D-05
 IDIUse=3 WtCom= 9.94D-01 WtEn= 5.66D-03
 Coeff-Com: -0.364D-01 0.496D+00 0.540D+00
 Coeff-En:   0.000D+00 0.470D+00 0.530D+00
 Coeff:     -0.362D-01 0.496D+00 0.540D+00
 Gap=     0.398 Goal=   None    Shift=    0.000
 RMSDP=7.75D-05 MaxDP=6.94D-04 DE=-8.93D-07 OVMax= 7.49D-04

 Cycle   4  Pass 1  IDiag  1:
 E= -76.3406656957839     Delta-E=       -0.000006616296 Rises=F Damp=F
 DIIS: error= 1.07D-05 at cycle   4 NSaved=   4.
 NSaved= 4 IEnMin= 4 EnMin= -76.3406656957839     IErMin= 4 ErrMin= 1.07D-05
 ErrMax= 1.07D-05  0.00D+00 EMaxC= 1.00D-01 BMatC= 3.12D-09 BMatP= 9.47D-06
 IDIUse=1 WtCom= 1.00D+00 WtEn= 0.00D+00
 Coeff-Com: -0.104D-02 0.342D-03 0.139D-01 0.987D+00
 Coeff:     -0.104D-02 0.342D-03 0.139D-01 0.987D+00
 Gap=     0.398 Goal=   None    Shift=    0.000
 RMSDP=2.25D-06 MaxDP=1.32D-05 DE=-6.62D-06 OVMax= 2.89D-05

 Cycle   5  Pass 1  IDiag  1:
 E= -76.3406656989245     Delta-E=       -0.000000003141 Rises=F Damp=F
 DIIS: error= 2.43D-06 at cycle   5 NSaved=   5.
 NSaved= 5 IEnMin= 5 EnMin= -76.3406656989245     IErMin= 5 ErrMin= 2.43D-06
 ErrMax= 2.43D-06  0.00D+00 EMaxC= 1.00D-01 BMatC= 1.26D-10 BMatP= 3.12D-09
 IDIUse=1 WtCom= 1.00D+00 WtEn= 0.00D+00
 Coeff-Com:  0.564D-03-0.112D-01-0.864D-02 0.173D+00 0.847D+00
 Coeff:      0.564D-03-0.112D-01-0.864D-02 0.173D+00 0.847D+00
 Gap=     0.398 Goal=   None    Shift=    0.000
 RMSDP=4.42D-07 MaxDP=3.76D-06 DE=-3.14D-09 OVMax= 4.95D-06

 Cycle   6  Pass 1  IDiag  1:
 E= -76.3406656990406     Delta-E=       -0.000000000116 Rises=F Damp=F
 DIIS: error= 2.58D-07 at cycle   6 NSaved=   6.
 NSaved= 6 IEnMin= 6 EnMin= -76.3406656990406     IErMin= 6 ErrMin= 2.58D-07
 ErrMax= 2.58D-07  0.00D+00 EMaxC= 1.00D-01 BMatC= 1.36D-12 BMatP= 1.26D-10
 IDIUse=1 WtCom= 1.00D+00 WtEn= 0.00D+00
 Coeff-Com:  0.439D-05 0.312D-03 0.303D-03-0.226D-01-0.360D-01 0.106D+01
 Coeff:      0.439D-05 0.312D-03 0.303D-03-0.226D-01-0.360D-01 0.106D+01
 Gap=     0.398 Goal=   None    Shift=    0.000
 RMSDP=7.07D-08 MaxDP=3.82D-07 DE=-1.16D-10 OVMax= 8.46D-07

 Cycle   7  Pass 1  IDiag  1:
 E= -76.3406656990424     Delta-E=       -0.000000000002 Rises=F Damp=F
 DIIS: error= 1.01D-08 at cycle   7 NSaved=   7.
 NSaved= 7 IEnMin= 7 EnMin= -76.3406656990424     IErMin= 7 ErrMin= 1.01D-08
 ErrMax= 1.01D-08  0.00D+00 EMaxC= 1.00D-01 BMatC= 1.36D-15 BMatP= 1.36D-12
 IDIUse=1 WtCom= 1.00D+00 WtEn= 0.00D+00
 Coeff-Com: -0.181D-05 0.172D-04 0.815D-05 0.560D-03-0.824D-03-0.689D-01
 Coeff-Com:  0.107D+01
 Coeff:     -0.181D-05 0.172D-04 0.815D-05 0.560D-03-0.824D-03-0.689D-01
 Coeff:      0.107D+01
 Gap=     0.398 Goal=   None    Shift=    0.000
 RMSDP=3.61D-09 MaxDP=3.00D-08 DE=-1.78D-12 OVMax= 4.11D-08

 Error on total polarization charges =  0.00112
 SCF Done:  E(RPBE1PBE) =  -76.3406656990     A.U. after    7 cycles
            NFock=  7  Conv=0.36D-08     -V/T= 2.0074
 KE= 7.578342987669D+01 PE=-1.988645996522D+02 EE= 3.758825307917D+01
[...]
 Hexadecapole moment (field-independent basis, Debye-Ang**3):
 XXXX=             -5.1259 YYYY=             -5.7549 ZZZZ=             -6.1548 XXXY=             -0.0000
 XXXZ=             -0.0000 YYYX=             -0.0000 YYYZ=             -0.0000 ZZZX=             -0.0000
 ZZZY=              0.0000 XXYY=             -2.0774 XXZZ=             -1.9355 YYZZ=             -1.6327
 XXYZ=              0.0000 YYXZ=              0.0000 ZZXY=              0.0000
 N-N= 9.152250997260D+00 E-N=-1.988645996794D+02  KE= 7.578342992515D+01
 Symmetry A1   KE= 6.766104051655D+01
 Symmetry A2   KE=-3.568788066973D-36
 Symmetry B1   KE= 4.549948734208D+00
 Symmetry B2   KE= 3.572440674390D+00
 Orbital energies and kinetic energies (alpha):
                                 1                 2
   1         (A1)--O         -19.210842         29.048345
   2         (A1)--O          -1.024138          2.576365
   3         (B2)--O          -0.528047          1.786220
   4         (A1)--O          -0.387397          2.205811
   5         (B1)--O          -0.306988          2.274974
   6         (A1)--V           0.090942          1.147493
   7         (B2)--V           0.177191          1.226228
   8         (B2)--V           0.779340          2.039046
   9         (A1)--V           0.832024          3.003557
  10         (A1)--V           0.911870          2.534002
 Total kinetic energy from orbitals= 7.578342992515D+01
  Exact polarizability:       3.103       0.000       7.511       0.000       0.000       5.614
 Approx polarizability:       3.245       0.000       8.402       0.000      -0.000       6.434
 No NMR shielding tensors so no spin-rotation constants.
 Leave Link  601 at Fri Jun 10 11:09:22 2022, MaxMem=  1342177280 cpu:               0.9 elap:               0.6
 (Enter /gpfs1/apps/software/Gaussian16/AVX/g16/l701.exe)
 ... and contract with generalized density number  0.
 Compute integral second derivatives.
 R6Disp: Adding Grimme-D3(BJ) dispersion energy 2nd derivatives to the Hessian.
 D2PCM: PCM CHGder 2nd derivatives, FixD1E=F FixD2E=F DoIter=F DoCFld=F I1PDM=0
 GePol: Maximum number of non-zero 2nd derivatives   =     266
 Leave Link  701 at Fri Jun 10 11:09:29 2022, MaxMem=  1342177280 cpu:              10.8 elap:               6.4
 (Enter /gpfs1/apps/software/Gaussian16/AVX/g16/l702.exe)
 L702 exits ... SP integral derivatives will be done elsewhere.
 Leave Link  702 at Fri Jun 10 11:09:29 2022, MaxMem=  1342177280 cpu:               0.2 elap:               0.2
 (Enter /gpfs1/apps/software/Gaussian16/AVX/g16/l703.exe)
 Integral derivatives from FoFJK, PRISM(SPDF).
 Compute integral second derivatives, UseDBF=F ICtDFT=           0.
 Calling FoFJK, ICntrl=    100127 FMM=F ISym2X=1 I1Cent= 0 IOpClX= 0 NMat=1 NMatS=1 NMatT=0.
 FoFJK:  IHMeth= 1 ICntrl=  100127 DoSepK=F KAlg= 0 I1Cent=           0 FoldK=F
 IRaf=         0 NMat=       1 IRICut=       1 DoRegI=T DoRafI=F ISym2E= 1 IDoP0=0 IntGTp=1.
 FoFCou: FMM=F IPFlag=           0 FMFlag=      100000 FMFlg1=         800
         NFxFlg=           0 DoJE=F BraDBF=F KetDBF=F FulRan=T
         wScrn=  0.000000 ICntrl=    100127 IOpCl=  0 I1Cent=           0 NGrid=           0
         NMat0=    1 NMatS0=      1 NMatT0=    0 NMatD0=    1 NMtDS0=    0 NMtDT0=    0
 Petite list used in FoFCou.
 Leave Link  703 at Fri Jun 10 11:09:31 2022, MaxMem=  1342177280 cpu:               2.2 elap:               2.2
 (Enter /gpfs1/apps/software/Gaussian16/AVX/g16/l716.exe)
 Dipole        =-5.25520158D-17-8.67361738D-19-8.55753973D-01
 Polarizability= 3.10319469D+00 4.43173068D-14 7.51133276D+00
                 3.23853709D-14 1.79100007D-13 5.61409763D+00
 Full mass-weighted force constant matrix:
 Low frequencies --- -120.5208  -66.0643   -0.0010   -0.0009    0.0012   67.2655
 Low frequencies --- 1668.2293 3866.1598 3976.5320
 Diagonal vibrational polarizability:
        0.0000000       0.0753910       0.8826457
 Harmonic frequencies (cm**-1), IR intensities (KM/Mole), Raman scattering
 activities (A**4/AMU), depolarization ratios for plane and unpolarized
 incident light, reduced masses (AMU), force constants (mDyne/A),
 and normal coordinates:
                      1                      2                      3
                     A1                     A1                     B2
 Frequencies --   1668.2293              3866.1598              3976.5311
 Red. masses --      1.0820                 1.0458                 1.0810
 Frc consts  --      1.7741                 9.2101                10.0711
 IR Inten    --     89.6988                 8.4803                44.2991
  Atom  AN      X      Y      Z        X      Y      Z        X      Y      Z
     1   8    -0.00  -0.00  -0.07     0.00  -0.00   0.05    -0.00  -0.07  -0.00
     2   1     0.00   0.43   0.56     0.00   0.58  -0.40    -0.00   0.55  -0.44
     3   1     0.00  -0.43   0.56    -0.00  -0.58  -0.40     0.00   0.55   0.44

 -------------------
 - Thermochemistry -
 -------------------
 Temperature   298.150 Kelvin.  Pressure   1.00000 Atm.
 Atom     1 has atomic number  8 and mass  15.99491
 Atom     2 has atomic number  1 and mass   1.00783
 Atom     3 has atomic number  1 and mass   1.00783
 Molecular mass:    18.01056 amu.
 Principal axes and moments of inertia in atomic units:
                           1         2         3
     Eigenvalues --     2.26084   4.11372   6.37456
           X            0.00000   0.00000   1.00000
           Y            1.00000   0.00000   0.00000
           Z            0.00000   1.00000   0.00000
 This molecule is an asymmetric top.
 Rotational symmetry number  2.
 Rotational temperatures (Kelvin)     38.31042    21.05490    13.58743
 Rotational constants (GHZ):         798.25963   438.71295   283.11609
 Zero-point vibrational energy      56887.9 (Joules/Mol)
                                   13.59654 (Kcal/Mol)
 Vibrational temperatures:   2400.21  5562.54  5721.34
          (Kelvin)
 
 Zero-point correction=                           0.021667 (Hartree/Particle)
 Thermal correction to Energy=                    0.024502
 Thermal correction to Enthalpy=                  0.025447
 Thermal correction to Gibbs Free Energy=         0.004020
 Sum of electronic and zero-point Energies=            -76.318998
 Sum of electronic and thermal Energies=               -76.316163
 Sum of electronic and thermal Enthalpies=             -76.315219
 Sum of electronic and thermal Free Energies=          -76.336646
 
                     E (Thermal)             CV                S
                      KCal/Mol        Cal/Mol-Kelvin    Cal/Mol-Kelvin
 Total                   15.376              6.003             45.096
 Electronic               0.000              0.000              0.000
 Translational            0.889              2.981             34.608
 Rotational               0.889              2.981             10.482
 Vibrational             13.598              0.041              0.006
                       Q            Log10(Q)             Ln(Q)
 Total Bot       0.141528D-01         -1.849159         -4.257845
 Total V=0       0.130972D+09          8.117177         18.690490
 Vib (Bot)       0.108094D-09         -9.966197        -22.948017
 Vib (V=0)       0.100032D+01          0.000139          0.000319
 Electronic      0.100000D+01          0.000000          0.000000
 Translational   0.300431D+07          6.477745         14.915559
 Rotational      0.435806D+02          1.639293          3.774613
 
                                  water_Optimisation_Frequencies_PBE1PBE__GD3BJ__
 Toluene_6_31G_d_p_
                                                             IR Spectrum
 
     3   3                                                                     1                                                     
     9   8                                                                     6                                                     
     7   6                                                                     6                                                     
     7   6                                                                     8                                                     
 
     X   X                                                                     X                                                     
     X   X                                                                     X                                                     
     X                                                                         X                                                     
     X                                                                         X                                                     
     X                                                                         X                                                     
     X                                                                         X                                                     
     X                                                                         X                                                     
     X                                                                         X                                                     
     X                                                                         X                                                     
     X                                                                         X                                                     
                                                                               X                                                     
                                                                               X                                                     
                                                                               X                                                     
                                                                               X                                                     
                                                                               X                                                     
                                                                               X                                                     
                                                                               X                                                     
                                                                               X                                                     
                                                                               X                                                     
                                                                               X                                                     
 
 ***** Axes restored to original set *****
 -------------------------------------------------------------------
 Center     Atomic                   Forces (Hartrees/Bohr)
 Number     Number              X              Y              Z
 -------------------------------------------------------------------
      1        8          -0.000000000    0.000000000   -0.000376422
      2        1          -0.000000000   -0.000254950    0.000188211
      3        1           0.000000000    0.000254950    0.000188211
 -------------------------------------------------------------------
 Cartesian Forces:  Max     0.000376422 RMS     0.000195090
 Force constants in Cartesian coordinates: 
                1             2             3             4             5 
      1  0.306511D-03
      2  0.000000D+00  0.691645D+00
      3  0.000000D+00  0.000000D+00  0.473948D+00
      4 -0.153256D-03  0.000000D+00  0.000000D+00 -0.660226D-05
      5  0.000000D+00 -0.345823D+00  0.208029D+00  0.000000D+00  0.377604D+00
      6  0.000000D+00  0.272038D+00 -0.236974D+00  0.000000D+00 -0.240034D+00
      7 -0.153256D-03  0.000000D+00  0.000000D+00  0.159858D-03  0.000000D+00
      8  0.000000D+00 -0.345823D+00 -0.208029D+00  0.000000D+00 -0.317815D-01
      9  0.000000D+00 -0.272038D+00 -0.236974D+00  0.000000D+00  0.320045D-01
                6             7             8             9 
      6  0.225056D+00
      7  0.000000D+00 -0.660226D-05
      8 -0.320045D-01  0.000000D+00  0.377604D+00
      9  0.119179D-01  0.000000D+00  0.240034D+00  0.225056D+00
 FormGI is forming the generalized inverse of G from B-inverse, IUseBI=4.
 Force constants in internal coordinates: 
                1             2             3 
      1  0.552695D+00
      2 -0.703760D-02  0.552695D+00
      3  0.316339D-01  0.316339D-01  0.166066D+00
 Leave Link  716 at Fri Jun 10 11:09:32 2022, MaxMem=  1342177280 cpu:               1.7 elap:               1.0
 (Enter /gpfs1/apps/software/Gaussian16/AVX/g16/l103.exe)

 GradGradGradGradGradGradGradGradGradGradGradGradGradGradGradGradGradGrad
 Berny optimization.
 Red2BG is reusing G-inverse.
 Internal  Forces:  Max     0.000316747 RMS     0.000258823
 Search for a local minimum.
 Step number   1 out of a maximum of    2
 All quantities printed in internal units (Hartrees-Bohrs-Radians)
 Second derivative matrix not updated -- analytic derivatives used.
 The second derivative matrix:
                          R1        R2        A1
           R1           0.55270
           R2          -0.00704   0.55270
           A1           0.03163   0.03163   0.16607
 ITU=  0
     Eigenvalues ---    0.16086   0.55086   0.55973
 Angle between quadratic step and forces=  10.31 degrees.
 Linear search not attempted -- first point.
 Iteration  1 RMS(Cart)=  0.00038565 RMS(Int)=  0.00000002
 Iteration  2 RMS(Cart)=  0.00000002 RMS(Int)=  0.00000000
 ITry= 1 IFail=0 DXMaxC= 3.96D-04 DCOld= 1.00D+10 DXMaxT= 3.00D-01 DXLimC= 3.00D+00 Rises=F
 ClnCor:  largest displacement from symmetrization is 4.97D-16 for atom     3.
 Variable       Old X    -DE/DX   Delta X   Delta X   Delta X     New X
                                 (Linear)    (Quad)   (Total)
    R1        1.81766  -0.00032   0.00000  -0.00059  -0.00059   1.81707
    R2        1.81766  -0.00032   0.00000  -0.00059  -0.00059   1.81707
    A1        1.80848  -0.00002   0.00000   0.00012   0.00012   1.80859
         Item               Value     Threshold  Converged?
 Maximum Force            0.000317     0.000450     YES
 RMS     Force            0.000259     0.000300     YES
 Maximum Displacement     0.000396     0.001800     YES
 RMS     Displacement     0.000386     0.001200     YES
 Predicted change in Energy=-1.849887D-07
 Optimization completed.
    -- Stationary point found.
                           ----------------------------
                           !   Optimized Parameters   !
                           ! (Angstroms and Degrees)  !
 --------------------------                            --------------------------
 ! Name  Definition              Value          Derivative Info.                !
 --------------------------------------------------------------------------------
 ! R1    R(1,2)                  0.9619         -DE/DX =   -0.0003              !
 ! R2    R(1,3)                  0.9619         -DE/DX =   -0.0003              !
 ! A1    A(2,1,3)              103.6181         -DE/DX =    0.0                 !
 --------------------------------------------------------------------------------
 GradGradGradGradGradGradGradGradGradGradGradGradGradGradGradGradGradGrad

 Leave Link  103 at Fri Jun 10 11:09:33 2022, MaxMem=  1342177280 cpu:               0.5 elap:               0.5
 (Enter /gpfs1/apps/software/Gaussian16/AVX/g16/l9999.exe)

 ----------------------------------------------------------------------

 Electric dipole moment (input orientation):
 (Debye = 10**-18 statcoulomb cm , SI units = C m)
                  (au)            (Debye)         (10**-30 SI)
   Tot        0.855754D+00      0.217511D+01      0.725538D+01
   x          0.000000D+00      0.000000D+00      0.000000D+00
   y          0.000000D+00      0.000000D+00      0.000000D+00
   z         -0.855754D+00     -0.217511D+01     -0.725538D+01

 Dipole polarizability, Alpha (input orientation).
 (esu units = cm**3 , SI units = C**2 m**2 J**-1)
 Alpha(0;0):
               (au)            (10**-24 esu)      (10**-40 SI)
   iso        0.540954D+01      0.801611D+00      0.891913D+00
   aniso      0.382987D+01      0.567528D+00      0.631460D+00
   xx         0.310319D+01      0.459846D+00      0.511648D+00
   yx         0.000000D+00      0.000000D+00      0.000000D+00
   yy         0.751133D+01      0.111306D+01      0.123845D+01
   zx         0.000000D+00      0.000000D+00      0.000000D+00
   zy         0.000000D+00      0.000000D+00      0.000000D+00
   zz         0.561410D+01      0.831923D+00      0.925640D+00

 ----------------------------------------------------------------------

 Dipole orientation:
     8         -0.00000000          0.00000000         -0.14680033
     1          0.00000000         -1.42859679          0.97702940
     1         -0.00000000          1.42859679          0.97702940

 Electric dipole moment (dipole orientation):
 (Debye = 10**-18 statcoulomb cm , SI units = C m)
                  (au)            (Debye)         (10**-30 SI)
   Tot        0.855754D+00      0.217511D+01      0.725538D+01
   x          0.000000D+00      0.000000D+00      0.000000D+00
   y          0.000000D+00      0.000000D+00      0.000000D+00
   z          0.855754D+00      0.217511D+01      0.725538D+01

 Dipole polarizability, Alpha (dipole orientation).
 (esu units = cm**3 , SI units = C**2 m**2 J**-1)
 Alpha(0;0):
               (au)            (10**-24 esu)      (10**-40 SI)
   iso        0.540954D+01      0.801611D+00      0.891913D+00
   aniso      0.382987D+01      0.567528D+00      0.631460D+00
   xx         0.310319D+01      0.459846D+00      0.511648D+00
   yx         0.000000D+00      0.000000D+00      0.000000D+00
   yy         0.751133D+01      0.111306D+01      0.123845D+01
   zx         0.000000D+00      0.000000D+00      0.000000D+00
   zy         0.000000D+00      0.000000D+00      0.000000D+00
   zz         0.561410D+01      0.831923D+00      0.925640D+00

 ----------------------------------------------------------------------
 Unable to Open any file for archive entry.
 1\1\GINC-KENNEDY48\Freq\RPBE1PBE\6-31G(d,p)\H2O1\OSL\10-Jun-2022\0\\#P
  Geom=AllCheck Guess=TCheck SCRF=Check GenChk RPBE1PBE/6-31G(d,p) Freq
 \\water_Optimisation_Frequencies_PBE1PBE__GD3BJ__Toluene_6_31G_d_p_\\0
 ,1\O,0.,0.,0.0776833882\H,0.,0.7559808633,-0.5170216941\H,0.,-0.755980
 8633,-0.5170216941\\Version=ES64L-G16RevC.01\State=1-A1\HF=-76.3406657
 \RMSD=2.263e-10\RMSF=1.951e-04\ZeroPoint=0.0216675\Thermal=0.0245025\E
 Tot=-76.3161632\HTot=-76.3152191\GTot=-76.3366455\Dipole=0.,0.,-0.8557
 54\DipoleDeriv=-0.7615402,0.,0.,0.,-0.4991578,0.,0.,0.,-0.4015494,0.38
 07701,0.,0.,0.,0.2495789,0.0731992,0.,0.1031509,0.2007747,0.3807701,0.
 ,0.,0.,0.2495789,-0.0731992,0.,-0.1031509,0.2007747\Polar=3.1031947,0.
 ,7.5113328,0.,0.,5.6140976\Quadrupole=-1.0322493,1.1616889,-0.1294395,
 0.,0.,0.\PG=C02V [C2(O1),SGV(H2)]\NImag=0\\0.00030651,0.,0.69164517,0.
 ,0.,0.47394825,-0.00015326,0.,0.,-0.00000660,0.,-0.34582259,0.20802909
 ,0.,0.37760405,0.,0.27203812,-0.23697412,0.,-0.24003360,0.22505619,-0.
 00015326,0.,0.,0.00015986,0.,0.,-0.00000660,0.,-0.34582259,-0.20802909
 ,0.,-0.03178146,-0.03200451,0.,0.37760405,0.,-0.27203812,-0.23697412,0
 .,0.03200451,0.01191794,0.,0.24003360,0.22505619\\0.,0.,0.00037642,0.,
 0.00025495,-0.00018821,0.,-0.00025495,-0.00018821\\\@
 The archive entry for this job was punched.


 A DANDELION FROM A LOVER MEANS MORE THAN AN ORCHID FROM A FRIEND.
 Job cpu time:       0 days  0 hours  0 minutes 47.5 seconds.
 Elapsed time:       0 days  0 hours  0 minutes 24.5 seconds.
 File lengths (MBytes):  RWF=     23 Int=      0 D2E=      0 Chk=      3 Scr=      2
 Normal termination of Gaussian 16 at Fri Jun 10 11:09:33 2022.
