 Entering Gaussian System, Link 0=g09
 Initial command:
 /home/eric/data/opt/apps/gaussian/g09B.01/g09/l1.exe /tmp/Gau-2165222.inp -scrdir=/tmp/
 Entering Link 1 = /home/eric/data/opt/apps/gaussian/g09B.01/g09/l1.exe PID=   2165224.
  
 Copyright (c) 1988,1990,1992,1993,1995,1998,2003,2009,2010,
            Gaussian, Inc.  All Rights Reserved.
  
 This is part of the Gaussian(R) 09 program.  It is based on
 the Gaussian(R) 03 system (copyright 2003, Gaussian, Inc.),
 the Gaussian(R) 98 system (copyright 1998, Gaussian, Inc.),
 the Gaussian(R) 94 system (copyright 1995, Gaussian, Inc.),
 the Gaussian 92(TM) system (copyright 1992, Gaussian, Inc.),
 the Gaussian 90(TM) system (copyright 1990, Gaussian, Inc.),
 the Gaussian 88(TM) system (copyright 1988, Gaussian, Inc.),
 the Gaussian 86(TM) system (copyright 1986, Carnegie Mellon
 University), and the Gaussian 82(TM) system (copyright 1983,
 Carnegie Mellon University). Gaussian is a federally registered
 trademark of Gaussian, Inc.
  
 This software contains proprietary and confidential information,
 including trade secrets, belonging to Gaussian, Inc.
  
 This software is provided under written license and may be
 used, copied, transmitted, or stored only in accord with that
 written license.
  
 The following legend is applicable only to US Government
 contracts under FAR:
  
                    RESTRICTED RIGHTS LEGEND
  
 Use, reproduction and disclosure by the US Government is
 subject to restrictions as set forth in subparagraphs (a)
 and (c) of the Commercial Computer Software - Restricted
 Rights clause in FAR 52.227-19.
  
 Gaussian, Inc.
 340 Quinnipiac St., Bldg. 40, Wallingford CT 06492
  
  
 ---------------------------------------------------------------
 Warning -- This program may not be used in any manner that
 competes with the business of Gaussian, Inc. or will provide
 assistance to any competitor of Gaussian, Inc.  The licensee
 of this program is prohibited from giving any competitor of
 Gaussian, Inc. access to this program.  By using this program,
 the user acknowledges that Gaussian, Inc. is engaged in the
 business of creating and licensing software in the field of
 computational chemistry and represents and warrants to the
 licensee that it is not a competitor of Gaussian, Inc. and that
 it will not use this program in any manner prohibited above.
 ---------------------------------------------------------------
  

 Cite this work as:
 Gaussian 09, Revision B.01,
 M. J. Frisch, G. W. Trucks, H. B. Schlegel, G. E. Scuseria, 
 M. A. Robb, J. R. Cheeseman, G. Scalmani, V. Barone, B. Mennucci, 
 G. A. Petersson, H. Nakatsuji, M. Caricato, X. Li, H. P. Hratchian, 
 A. F. Izmaylov, J. Bloino, G. Zheng, J. L. Sonnenberg, M. Hada, 
 M. Ehara, K. Toyota, R. Fukuda, J. Hasegawa, M. Ishida, T. Nakajima, 
 Y. Honda, O. Kitao, H. Nakai, T. Vreven, J. A. Montgomery, Jr., 
 J. E. Peralta, F. Ogliaro, M. Bearpark, J. J. Heyd, E. Brothers, 
 K. N. Kudin, V. N. Staroverov, T. Keith, R. Kobayashi, J. Normand, 
 K. Raghavachari, A. Rendell, J. C. Burant, S. S. Iyengar, J. Tomasi, 
 M. Cossi, N. Rega, J. M. Millam, M. Klene, J. E. Knox, J. B. Cross, 
 V. Bakken, C. Adamo, J. Jaramillo, R. Gomperts, R. E. Stratmann, 
 O. Yazyev, A. J. Austin, R. Cammi, C. Pomelli, J. W. Ochterski, 
 R. L. Martin, K. Morokuma, V. G. Zakrzewski, G. A. Voth, 
 P. Salvador, J. J. Dannenberg, S. Dapprich, A. D. Daniels, 
 O. Farkas, J. B. Foresman, J. V. Ortiz, J. Cioslowski, 
 and D. J. Fox, Gaussian, Inc., Wallingford CT, 2010.
 
 ******************************************
 Gaussian 09:  EM64L-G09RevB.01 12-Aug-2010
                29-Jun-2025 
 ******************************************
 %chk=dvb_gopt_qchem.chk
 -------------------
 #p b3lyp/sto-3g opt
 -------------------
 1/14=-1,18=20,19=15,26=3,38=1/1,3;
 2/9=110,12=2,17=6,18=5,40=1/2;
 3/6=3,11=2,16=1,25=1,30=1,71=1,74=-5/1,2,3;
 4//1;
 5/5=2,38=5/2;
 6/7=2,8=2,9=2,10=2,28=1/1;
 7//1,2,3,16;
 1/14=-1,18=20,19=15/3(2);
 2/9=110/2;
 99//99;
 2/9=110/2;
 3/6=3,11=2,16=1,25=1,30=1,71=1,74=-5/1,2,3;
 4/5=5,16=3/1;
 5/5=2,38=5/2;
 7//1,2,3,16;
 1/14=-1,18=20,19=15/3(-5);
 2/9=110/2;
 6/7=2,8=2,9=2,10=2,19=2,28=1/1;
 99/9=1/99;
 Leave Link    1 at Sun Jun 29 23:41:56 2025, MaxMem=          0 cpu:       0.0
 (Enter /home/eric/data/opt/apps/gaussian/g09B.01/g09/l101.exe)
 ---
 dvb
 ---
 Symbolic Z-matrix:
 Charge =  0 Multiplicity = 1
 C                     0.27868  -1.36683   0. 
 C                     1.32303  -0.44174   0. 
 C                     1.04435   0.92485   0. 
 C                    -0.27868   1.36683   0. 
 C                    -1.32303   0.44174   0. 
 C                    -1.04435  -0.92485   0. 
 H                     2.36595  -0.79038   0. 
 H                     1.86746   1.65408   0. 
 H                    -2.36595   0.79038   0. 
 H                    -1.86746  -1.65408   0. 
 C                    -0.58659   2.8759    0. 
 C                     0.3635    3.80076   0. 
 H                    -1.65648   3.12394   0. 
 H                     0.1443    4.87693   0. 
 H                     1.43339   3.55272   0. 
 C                     0.58659  -2.8759    0. 
 C                    -0.3635   -3.80076   0. 
 H                     1.65648  -3.12394   0. 
 H                    -0.1443   -4.87693   0. 
 H                    -1.43339  -3.55272   0. 
 
 NAtoms=     20 NQM=     20 NQMF=      0 NMic=      0 NMicF=      0 NTot=     20.
                    Isotopes and Nuclear Properties:
 (Nuclear quadrupole moments (NQMom) in fm**2, nuclear magnetic moments (NMagM)
  in nuclear magnetons)

  Atom         1           2           3           4           5           6           7           8           9          10
 IAtWgt=          12          12          12          12          12          12           1           1           1           1
 AtmWgt=  12.0000000  12.0000000  12.0000000  12.0000000  12.0000000  12.0000000   1.0078250   1.0078250   1.0078250   1.0078250
 NucSpn=           0           0           0           0           0           0           1           1           1           1
 AtZEff=   0.0000000   0.0000000   0.0000000   0.0000000   0.0000000   0.0000000   0.0000000   0.0000000   0.0000000   0.0000000
 NQMom=    0.0000000   0.0000000   0.0000000   0.0000000   0.0000000   0.0000000   0.0000000   0.0000000   0.0000000   0.0000000
 NMagM=    0.0000000   0.0000000   0.0000000   0.0000000   0.0000000   0.0000000   2.7928460   2.7928460   2.7928460   2.7928460

  Atom        11          12          13          14          15          16          17          18          19          20
 IAtWgt=          12          12           1           1           1          12          12           1           1           1
 AtmWgt=  12.0000000  12.0000000   1.0078250   1.0078250   1.0078250  12.0000000  12.0000000   1.0078250   1.0078250   1.0078250
 NucSpn=           0           0           1           1           1           0           0           1           1           1
 AtZEff=   0.0000000   0.0000000   0.0000000   0.0000000   0.0000000   0.0000000   0.0000000   0.0000000   0.0000000   0.0000000
 NQMom=    0.0000000   0.0000000   0.0000000   0.0000000   0.0000000   0.0000000   0.0000000   0.0000000   0.0000000   0.0000000
 NMagM=    0.0000000   0.0000000   2.7928460   2.7928460   2.7928460   0.0000000   0.0000000   2.7928460   2.7928460   2.7928460
 Leave Link  101 at Sun Jun 29 23:41:57 2025, MaxMem=   33554432 cpu:       0.0
 (Enter /home/eric/data/opt/apps/gaussian/g09B.01/g09/l103.exe)

 GradGradGradGradGradGradGradGradGradGradGradGradGradGradGradGradGradGrad
 Berny optimization.
 Initialization pass.
                           ----------------------------
                           !    Initial Parameters    !
                           ! (Angstroms and Degrees)  !
 --------------------------                            --------------------------
 ! Name  Definition              Value          Derivative Info.                !
 --------------------------------------------------------------------------------
 ! R1    R(1,2)                  1.3952         estimate D2E/DX2                !
 ! R2    R(1,6)                  1.3949         estimate D2E/DX2                !
 ! R3    R(1,16)                 1.5402         estimate D2E/DX2                !
 ! R4    R(2,3)                  1.3947         estimate D2E/DX2                !
 ! R5    R(2,7)                  1.0997         estimate D2E/DX2                !
 ! R6    R(3,4)                  1.3949         estimate D2E/DX2                !
 ! R7    R(3,8)                  1.0997         estimate D2E/DX2                !
 ! R8    R(4,5)                  1.3952         estimate D2E/DX2                !
 ! R9    R(4,11)                 1.5402         estimate D2E/DX2                !
 ! R10   R(5,6)                  1.3947         estimate D2E/DX2                !
 ! R11   R(5,9)                  1.0997         estimate D2E/DX2                !
 ! R12   R(6,10)                 1.0997         estimate D2E/DX2                !
 ! R13   R(11,12)                1.3259         estimate D2E/DX2                !
 ! R14   R(11,13)                1.0983         estimate D2E/DX2                !
 ! R15   R(12,14)                1.0983         estimate D2E/DX2                !
 ! R16   R(12,15)                1.0983         estimate D2E/DX2                !
 ! R17   R(16,17)                1.3259         estimate D2E/DX2                !
 ! R18   R(16,18)                1.0983         estimate D2E/DX2                !
 ! R19   R(17,19)                1.0983         estimate D2E/DX2                !
 ! R20   R(17,20)                1.0983         estimate D2E/DX2                !
 ! A1    A(2,1,6)              119.9923         estimate D2E/DX2                !
 ! A2    A(2,1,16)             120.0024         estimate D2E/DX2                !
 ! A3    A(6,1,16)             120.0053         estimate D2E/DX2                !
 ! A4    A(1,2,3)              120.0086         estimate D2E/DX2                !
 ! A5    A(1,2,7)              119.9808         estimate D2E/DX2                !
 ! A6    A(3,2,7)              120.0106         estimate D2E/DX2                !
 ! A7    A(2,3,4)              119.9991         estimate D2E/DX2                !
 ! A8    A(2,3,8)              120.0128         estimate D2E/DX2                !
 ! A9    A(4,3,8)              119.9881         estimate D2E/DX2                !
 ! A10   A(3,4,5)              119.9923         estimate D2E/DX2                !
 ! A11   A(3,4,11)             120.0053         estimate D2E/DX2                !
 ! A12   A(5,4,11)             120.0024         estimate D2E/DX2                !
 ! A13   A(4,5,6)              120.0086         estimate D2E/DX2                !
 ! A14   A(4,5,9)              119.9808         estimate D2E/DX2                !
 ! A15   A(6,5,9)              120.0106         estimate D2E/DX2                !
 ! A16   A(1,6,5)              119.9991         estimate D2E/DX2                !
 ! A17   A(1,6,10)             119.9881         estimate D2E/DX2                !
 ! A18   A(5,6,10)             120.0128         estimate D2E/DX2                !
 ! A19   A(4,11,12)            122.6967         estimate D2E/DX2                !
 ! A20   A(4,11,13)            114.5853         estimate D2E/DX2                !
 ! A21   A(12,11,13)           122.718          estimate D2E/DX2                !
 ! A22   A(11,12,14)           122.7159         estimate D2E/DX2                !
 ! A23   A(11,12,15)           122.718          estimate D2E/DX2                !
 ! A24   A(14,12,15)           114.5661         estimate D2E/DX2                !
 ! A25   A(1,16,17)            122.6967         estimate D2E/DX2                !
 ! A26   A(1,16,18)            114.5853         estimate D2E/DX2                !
 ! A27   A(17,16,18)           122.718          estimate D2E/DX2                !
 ! A28   A(16,17,19)           122.7159         estimate D2E/DX2                !
 ! A29   A(16,17,20)           122.718          estimate D2E/DX2                !
 ! A30   A(19,17,20)           114.5661         estimate D2E/DX2                !
 ! D1    D(6,1,2,3)              0.0            estimate D2E/DX2                !
 ! D2    D(6,1,2,7)            180.0            estimate D2E/DX2                !
 ! D3    D(16,1,2,3)           180.0            estimate D2E/DX2                !
 ! D4    D(16,1,2,7)             0.0            estimate D2E/DX2                !
 ! D5    D(2,1,6,5)              0.0            estimate D2E/DX2                !
 ! D6    D(2,1,6,10)           180.0            estimate D2E/DX2                !
 ! D7    D(16,1,6,5)           180.0            estimate D2E/DX2                !
 ! D8    D(16,1,6,10)            0.0            estimate D2E/DX2                !
 ! D9    D(2,1,16,17)          180.0            estimate D2E/DX2                !
 ! D10   D(2,1,16,18)            0.0            estimate D2E/DX2                !
 ! D11   D(6,1,16,17)            0.0            estimate D2E/DX2                !
 ! D12   D(6,1,16,18)          180.0            estimate D2E/DX2                !
 ! D13   D(1,2,3,4)              0.0            estimate D2E/DX2                !
 ! D14   D(1,2,3,8)            180.0            estimate D2E/DX2                !
 ! D15   D(7,2,3,4)            180.0            estimate D2E/DX2                !
 ! D16   D(7,2,3,8)              0.0            estimate D2E/DX2                !
 ! D17   D(2,3,4,5)              0.0            estimate D2E/DX2                !
 ! D18   D(2,3,4,11)           180.0            estimate D2E/DX2                !
 ! D19   D(8,3,4,5)            180.0            estimate D2E/DX2                !
 ! D20   D(8,3,4,11)             0.0            estimate D2E/DX2                !
 ! D21   D(3,4,5,6)              0.0            estimate D2E/DX2                !
 ! D22   D(3,4,5,9)            180.0            estimate D2E/DX2                !
 ! D23   D(11,4,5,6)           180.0            estimate D2E/DX2                !
 ! D24   D(11,4,5,9)             0.0            estimate D2E/DX2                !
 ! D25   D(3,4,11,12)            0.0            estimate D2E/DX2                !
 ! D26   D(3,4,11,13)          180.0            estimate D2E/DX2                !
 ! D27   D(5,4,11,12)          180.0            estimate D2E/DX2                !
 ! D28   D(5,4,11,13)            0.0            estimate D2E/DX2                !
 ! D29   D(4,5,6,1)              0.0            estimate D2E/DX2                !
 ! D30   D(4,5,6,10)           180.0            estimate D2E/DX2                !
 ! D31   D(9,5,6,1)            180.0            estimate D2E/DX2                !
 ! D32   D(9,5,6,10)             0.0            estimate D2E/DX2                !
 ! D33   D(4,11,12,14)         180.0            estimate D2E/DX2                !
 ! D34   D(4,11,12,15)           0.0            estimate D2E/DX2                !
 ! D35   D(13,11,12,14)          0.0            estimate D2E/DX2                !
 ! D36   D(13,11,12,15)        180.0            estimate D2E/DX2                !
 ! D37   D(1,16,17,19)         180.0            estimate D2E/DX2                !
 ! D38   D(1,16,17,20)           0.0            estimate D2E/DX2                !
 ! D39   D(18,16,17,19)          0.0            estimate D2E/DX2                !
 ! D40   D(18,16,17,20)        180.0            estimate D2E/DX2                !
 --------------------------------------------------------------------------------
 Trust Radius=3.00D-01 FncErr=1.00D-07 GrdErr=1.00D-06
 Number of steps in this run=    100 maximum allowed number of steps=    120.
 GradGradGradGradGradGradGradGradGradGradGradGradGradGradGradGradGradGrad

 Leave Link  103 at Sun Jun 29 23:41:57 2025, MaxMem=   33554432 cpu:       0.0
 (Enter /home/eric/data/opt/apps/gaussian/g09B.01/g09/l202.exe)
                          Input orientation:                          
 ---------------------------------------------------------------------
 Center     Atomic      Atomic             Coordinates (Angstroms)
 Number     Number       Type             X           Y           Z
 ---------------------------------------------------------------------
      1          6           0        0.278679   -1.366832    0.000000
      2          6           0        1.323030   -0.441736    0.000000
      3          6           0        1.044345    0.924850    0.000000
      4          6           0       -0.278679    1.366832    0.000000
      5          6           0       -1.323030    0.441736    0.000000
      6          6           0       -1.044345   -0.924850    0.000000
      7          1           0        2.365954   -0.790377    0.000000
      8          1           0        1.867461    1.654080    0.000000
      9          1           0       -2.365954    0.790377    0.000000
     10          1           0       -1.867461   -1.654080    0.000000
     11          6           0       -0.586592    2.875899    0.000000
     12          6           0        0.363502    3.800764    0.000000
     13          1           0       -1.656478    3.123943    0.000000
     14          1           0        0.144296    4.876932    0.000000
     15          1           0        1.433388    3.552720    0.000000
     16          6           0        0.586592   -2.875899    0.000000
     17          6           0       -0.363502   -3.800764    0.000000
     18          1           0        1.656478   -3.123943    0.000000
     19          1           0       -0.144296   -4.876932    0.000000
     20          1           0       -1.433388   -3.552720    0.000000
 ---------------------------------------------------------------------
                    Distance matrix (angstroms):
                    1          2          3          4          5
     1  C    0.000000
     2  C    1.395160   0.000000
     3  C    2.416205   1.394712   0.000000
     4  C    2.789904   2.415862   1.394899   0.000000
     5  C    2.415862   2.789652   2.416168   1.395160   0.000000
     6  C    1.394899   2.416168   2.789985   2.416205   1.394712
     7  H    2.165414   1.099655   2.165330   3.412864   3.889307
     8  H    3.413229   2.165375   1.099680   2.165278   3.413065
     9  H    3.412864   3.889307   3.412950   2.165414   1.099655
    10  H    2.165278   3.413065   3.889665   3.413229   2.165375
    11  C    4.330065   3.827971   2.542941   1.540161   2.543127
    12  C    5.168292   4.349655   2.955407   2.517226   3.758652
    13  H    4.889979   4.646669   3.482880   2.232883   2.702855
    14  H    6.245210   5.447719   4.053276   3.535494   4.671618
    15  H    5.053251   3.995980   2.656512   2.776560   4.156449
    16  C    1.540161   2.543127   3.828215   4.330065   3.827971
    17  C    2.517226   3.758652   4.930868   5.168292   4.349655
    18  H    2.232883   2.702855   4.094805   4.889979   4.646669
    19  H    3.535494   4.671618   5.922292   6.245210   5.447719
    20  H    2.776560   4.156449   5.117401   5.053251   3.995980
                    6          7          8          9         10
     6  C    0.000000
     7  H    3.412950   0.000000
     8  H    3.889665   2.494768   0.000000
     9  H    2.165330   4.988962   4.320624   0.000000
    10  H    1.099680   4.320624   4.989345   2.494768   0.000000
    11  C    3.828215   4.707347   2.741390   2.741447   4.707583
    12  C    4.930868   5.008832   2.621096   4.063540   5.893430
    13  H    4.094805   5.612652   3.818199   2.439034   4.782679
    14  H    5.922292   6.087213   3.654597   4.795966   6.833834
    15  H    5.117401   4.442092   1.947628   4.697397   6.164931
    16  C    2.542941   2.741447   4.707583   4.707347   2.741390
    17  C    2.955407   4.063540   5.893430   5.008832   2.621096
    18  H    3.482880   2.439034   4.782679   5.612652   3.818199
    19  H    4.053276   4.795966   6.833834   6.087213   3.654597
    20  H    2.656512   4.697397   6.164931   4.442092   1.947628
                   11         12         13         14         15
    11  C    0.000000
    12  C    1.325916   0.000000
    13  H    1.098263   2.130353   0.000000
    14  H    2.130336   1.098266   2.513117   0.000000
    15  H    2.130353   1.098263   3.119474   1.848052   0.000000
    16  C    5.870225   6.680390   6.405425   7.765438   6.484151
    17  C    6.680390   7.636214   7.044385   8.692541   7.569845
    18  H    6.405425   7.044385   7.071899   8.142524   6.680390
    19  H    7.765438   8.692541   8.142524   9.758133   8.576021
    20  H    6.484151   7.569845   6.680390   8.576021   7.661964
                   16         17         18         19         20
    16  C    0.000000
    17  C    1.325916   0.000000
    18  H    1.098263   2.130353   0.000000
    19  H    2.130336   1.098266   2.513117   0.000000
    20  H    2.130353   1.098263   3.119474   1.848052   0.000000
 Stoichiometry    C10H10
 Framework group  C2H[SGH(C10H10)]
 Deg. of freedom    19
 Full point group                 C2H     NOp   4
 Largest Abelian subgroup         C2H     NOp   4
 Largest concise Abelian subgroup C2      NOp   2
                         Standard orientation:                         
 ---------------------------------------------------------------------
 Center     Atomic      Atomic             Coordinates (Angstroms)
 Number     Number       Type             X           Y           Z
 ---------------------------------------------------------------------
      1          6           0        1.208103    0.697409    0.000000
      2          6           0       -0.000235    1.394826    0.000000
      3          6           0       -1.208103    0.697490    0.000000
      4          6           0       -1.208103   -0.697409    0.000000
      5          6           0        0.000235   -1.394826    0.000000
      6          6           0        1.208103   -0.697490    0.000000
      7          1           0       -0.000015    2.494481    0.000000
      8          1           0       -2.160567    1.247133    0.000000
      9          1           0        0.000015   -2.494481    0.000000
     10          1           0        2.160567   -1.247133    0.000000
     11          6           0       -2.541850   -1.467612    0.000000
     12          6           0       -3.720103   -0.859523    0.000000
     13          1           0       -2.438113   -2.560965    0.000000
     14          1           0       -4.671363   -1.408424    0.000000
     15          1           0       -3.823839    0.233830    0.000000
     16          6           0        2.541850    1.467612    0.000000
     17          6           0        3.720103    0.859523    0.000000
     18          1           0        2.438113    2.560965    0.000000
     19          1           0        4.671363    1.408424    0.000000
     20          1           0        3.823839   -0.233830    0.000000
 ---------------------------------------------------------------------
 Rotational constants (GHZ):      4.6160103      0.7067289      0.6128927
 Leave Link  202 at Sun Jun 29 23:41:57 2025, MaxMem=   33554432 cpu:       0.0
 (Enter /home/eric/data/opt/apps/gaussian/g09B.01/g09/l301.exe)
 Standard basis: STO-3G (5D, 7F)
 Ernie: Thresh=  0.10000D-02 Tol=  0.10000D-05 Strict=F.
 There are    25 symmetry adapted basis functions of AG  symmetry.
 There are     5 symmetry adapted basis functions of BG  symmetry.
 There are     5 symmetry adapted basis functions of AU  symmetry.
 There are    25 symmetry adapted basis functions of BU  symmetry.
 Integral buffers will be    131072 words long.
 Raffenetti 2 integral format.
 Two-electron integral symmetry is turned on.
    60 basis functions,   180 primitive gaussians,    60 cartesian basis functions
    35 alpha electrons       35 beta electrons
       nuclear repulsion energy       450.0061363163 Hartrees.
 IExCor=  402 DFT=T Ex+Corr=B3LYP ExCW=0 ScaHFX=  0.200000
 ScaDFX=  0.800000  0.720000  1.000000  0.810000 ScalE2=  1.000000  1.000000
 IRadAn=      0 IRanWt=     -1 IRanGd=            0 ICorTp=0
 NAtoms=   20 NActive=   20 NUniq=   10 SFac= 4.00D+00 NAtFMM=   50 NAOKFM=F Big=F
 Leave Link  301 at Sun Jun 29 23:41:57 2025, MaxMem=   33554432 cpu:       0.0
 (Enter /home/eric/data/opt/apps/gaussian/g09B.01/g09/l302.exe)
 NPDir=0 NMtPBC=     1 NCelOv=     1 NCel=       1 NClECP=     1 NCelD=      1
         NCelK=      1 NCelE2=     1 NClLst=     1 CellRange=     0.0.
 One-electron integrals computed using PRISM.
 One-electron integral symmetry used in STVInt
 NBasis=    60 RedAO= T  NBF=    25     5     5    25
 NBsUse=    60 1.00D-06 NBFU=    25     5     5    25
 Precomputing XC quadrature grid using
 IXCGrd= 2 IRadAn=           0 IRanWt=          -1 IRanGd=           0 AccXCQ= 0.00D+00.
 NRdTot=    1260 NPtTot=      160096 NUsed=      169189 NTot=      169221
 NSgBfM=    59    59    59    59    59 NAtAll=    20    20.
 Leave Link  302 at Sun Jun 29 23:41:57 2025, MaxMem=   33554432 cpu:       0.1
 (Enter /home/eric/data/opt/apps/gaussian/g09B.01/g09/l303.exe)
 DipDrv:  MaxL=1.
 Leave Link  303 at Sun Jun 29 23:41:57 2025, MaxMem=   33554432 cpu:       0.0
 (Enter /home/eric/data/opt/apps/gaussian/g09B.01/g09/l401.exe)
 Harris functional with IExCor=  402 diagonalized for initial guess.
 ExpMin= 1.69D-01 ExpMax= 7.16D+01 ExpMxC= 7.16D+01 IAcc=1 IRadAn=         1 AccDes= 0.00D+00
 HarFok:  IExCor=  402 AccDes= 0.00D+00 IRadAn=         1 IDoV= 1
 ScaDFX=  1.000000  1.000000  1.000000  1.000000
 FoFCou: FMM=F IPFlag=           0 FMFlag=      100000 FMFlg1=           0
         NFxFlg=           0 DoJE=T BraDBF=F KetDBF=T FulRan=T
         Omega=  0.000000  0.000000  1.000000  0.000000  0.000000 ICntrl=     500 IOpCl=  0
         NMat0=    1 NMatS0=    1 NMatT0=    0 NMatD0=    1 NMtDS0=    0 NMtDT0=    0
         I1Cent=           4 NGrid=           0.
 Petite list used in FoFCou.
 Harris En= -382.187813288034    
 Initial guess orbital symmetries:
       Occupied  (BU) (AG) (BU) (AG) (BU) (AG) (BU) (AG) (BU) (AG)
                 (AG) (BU) (AG) (BU) (BU) (AG) (AG) (BU) (AG) (AG)
                 (BU) (BU) (AG) (BU) (BU) (BU) (AG) (AU) (AG) (BU)
                 (AG) (BG) (AU) (BG) (BG)
       Virtual   (AU) (AU) (BG) (AU) (BG) (AG) (BU) (BU) (AG) (AG)
                 (BU) (BU) (AG) (BU) (AG) (AG) (BU) (AG) (BU) (BU)
                 (AG) (AG) (BU) (AG) (BU)
 The electronic state of the initial guess is 1-AG.
 Leave Link  401 at Sun Jun 29 23:41:57 2025, MaxMem=   33554432 cpu:       0.1
 (Enter /home/eric/data/opt/apps/gaussian/g09B.01/g09/l502.exe)
 Closed shell SCF:
 Requested convergence on RMS density matrix=1.00D-08 within 128 cycles.
 Requested convergence on MAX density matrix=1.00D-06.
 Requested convergence on             energy=1.00D-06.
 No special actions if energy rises.
 Using DIIS extrapolation, IDIIS=  1040.
 Integral symmetry usage will be decided dynamically.
       168996 words used for storage of precomputed grid.
 Keep R1 ints in memory in canonical form, NReq=2755343.
 IEnd=      198942 IEndB=      198942 NGot=    33554432 MDV=    31700398
 LenX=    31700398 LenY=    31696357
 Symmetry not used in FoFDir.
 MinBra= 0 MaxBra= 1 Meth= 1.
 IRaf=       0 NMat=   1 IRICut=       1 DoRegI=T DoRafI=F ISym2E= 0 JSym2E=0.
 Integral accuracy reduced to 1.0D-05 until final iterations.

 Cycle   1  Pass 0  IDiag  1:
 E= -382.248649388530    
 DIIS: error= 1.98D-02 at cycle   1 NSaved=   1.
 NSaved= 1 IEnMin= 1 EnMin= -382.248649388530     IErMin= 1 ErrMin= 1.98D-02
 ErrMax= 1.98D-02 EMaxC= 1.00D-01 BMatC= 3.74D-02 BMatP= 3.74D-02
 IDIUse=3 WtCom= 8.02D-01 WtEn= 1.98D-01
 Coeff-Com:  0.100D+01
 Coeff-En:   0.100D+01
 Coeff:      0.100D+01
 Gap=     0.209 Goal=   None    Shift=    0.000
 GapD=    0.209 DampG=1.000 DampE=0.500 DampFc=0.5000 IDamp=-1.
 Damping current iteration by 5.00D-01
 RMSDP=7.68D-03 MaxDP=9.35D-02              OVMax= 3.76D-02

 Cycle   2  Pass 0  IDiag  1:
 E= -382.276312753815     Delta-E=       -0.027663365284 Rises=F Damp=T
 DIIS: error= 5.13D-03 at cycle   2 NSaved=   2.
 NSaved= 2 IEnMin= 2 EnMin= -382.276312753815     IErMin= 2 ErrMin= 5.13D-03
 ErrMax= 5.13D-03 EMaxC= 1.00D-01 BMatC= 2.90D-03 BMatP= 3.74D-02
 IDIUse=3 WtCom= 9.49D-01 WtEn= 5.13D-02
 Coeff-Com: -0.194D+00 0.119D+01
 Coeff-En:   0.000D+00 0.100D+01
 Coeff:     -0.184D+00 0.118D+01
 Gap=     0.210 Goal=   None    Shift=    0.000
 RMSDP=2.06D-03 MaxDP=3.81D-02 DE=-2.77D-02 OVMax= 4.93D-02

 Cycle   3  Pass 0  IDiag  1:
 E= -382.295999681770     Delta-E=       -0.019686927955 Rises=F Damp=F
 DIIS: error= 9.18D-03 at cycle   3 NSaved=   3.
 NSaved= 3 IEnMin= 3 EnMin= -382.295999681770     IErMin= 2 ErrMin= 5.13D-03
 ErrMax= 9.18D-03 EMaxC= 1.00D-01 BMatC= 3.42D-03 BMatP= 2.90D-03
 IDIUse=3 WtCom= 9.45D-02 WtEn= 9.05D-01
 Coeff-Com: -0.164D+00 0.723D+00 0.441D+00
 Coeff-En:   0.000D+00 0.000D+00 0.100D+01
 Coeff:     -0.155D-01 0.684D-01 0.947D+00
 Gap=     0.209 Goal=   None    Shift=    0.000
 RMSDP=3.11D-03 MaxDP=7.63D-02 DE=-1.97D-02 OVMax= 5.83D-02

 Cycle   4  Pass 0  IDiag  1:
 E= -382.288258891038     Delta-E=        0.007740790731 Rises=F Damp=F
 DIIS: error= 1.57D-02 at cycle   4 NSaved=   4.
 NSaved= 4 IEnMin= 3 EnMin= -382.295999681770     IErMin= 2 ErrMin= 5.13D-03
 ErrMax= 1.57D-02 EMaxC= 1.00D-01 BMatC= 9.63D-03 BMatP= 2.90D-03
 IDIUse=2 WtCom= 0.00D+00 WtEn= 1.00D+00
 Coeff-En:   0.000D+00 0.000D+00 0.694D+00 0.306D+00
 Coeff:      0.000D+00 0.000D+00 0.694D+00 0.306D+00
 Gap=     0.209 Goal=   None    Shift=    0.000
 RMSDP=1.56D-03 MaxDP=3.84D-02 DE= 7.74D-03 OVMax= 2.84D-02

 Cycle   5  Pass 0  IDiag  1:
 E= -382.299873835625     Delta-E=       -0.011614944587 Rises=F Damp=F
 DIIS: error= 3.03D-03 at cycle   5 NSaved=   5.
 NSaved= 5 IEnMin= 5 EnMin= -382.299873835625     IErMin= 5 ErrMin= 3.03D-03
 ErrMax= 3.03D-03 EMaxC= 1.00D-01 BMatC= 3.74D-04 BMatP= 2.90D-03
 IDIUse=3 WtCom= 9.70D-01 WtEn= 3.03D-02
 Coeff-Com:  0.887D-02-0.195D-01 0.320D+00 0.778D-01 0.613D+00
 Coeff-En:   0.000D+00 0.000D+00 0.107D+00 0.000D+00 0.893D+00
 Coeff:      0.860D-02-0.189D-01 0.313D+00 0.755D-01 0.622D+00
 Gap=     0.210 Goal=   None    Shift=    0.000
 RMSDP=3.96D-04 MaxDP=9.46D-03 DE=-1.16D-02 OVMax= 7.02D-03

 Cycle   6  Pass 0  IDiag  1:
 E= -382.300344723544     Delta-E=       -0.000470887919 Rises=F Damp=F
 DIIS: error= 9.22D-05 at cycle   6 NSaved=   6.
 NSaved= 6 IEnMin= 6 EnMin= -382.300344723544     IErMin= 6 ErrMin= 9.22D-05
 ErrMax= 9.22D-05 EMaxC= 1.00D-01 BMatC= 3.40D-07 BMatP= 3.74D-04
 IDIUse=1 WtCom= 1.00D+00 WtEn= 0.00D+00
 Coeff-Com:  0.639D-03-0.175D-02 0.356D-01 0.542D-02 0.109D+00 0.851D+00
 Coeff:      0.639D-03-0.175D-02 0.356D-01 0.542D-02 0.109D+00 0.851D+00
 Gap=     0.210 Goal=   None    Shift=    0.000
 RMSDP=1.17D-05 MaxDP=2.45D-04 DE=-4.71D-04 OVMax= 1.36D-04

 Cycle   7  Pass 0  IDiag  1:
 E= -382.300345136976     Delta-E=       -0.000000413431 Rises=F Damp=F
 DIIS: error= 7.26D-06 at cycle   7 NSaved=   7.
 NSaved= 7 IEnMin= 7 EnMin= -382.300345136976     IErMin= 7 ErrMin= 7.26D-06
 ErrMax= 7.26D-06 EMaxC= 1.00D-01 BMatC= 4.07D-09 BMatP= 3.40D-07
 IDIUse=1 WtCom= 1.00D+00 WtEn= 0.00D+00
 Coeff-Com: -0.235D-03 0.381D-03-0.340D-02-0.207D-02 0.102D-01 0.371D+00
 Coeff-Com:  0.624D+00
 Coeff:     -0.235D-03 0.381D-03-0.340D-02-0.207D-02 0.102D-01 0.371D+00
 Coeff:      0.624D+00
 Gap=     0.210 Goal=   None    Shift=    0.000
 RMSDP=1.73D-06 MaxDP=1.61D-05 DE=-4.13D-07 OVMax= 1.68D-05

 Initial convergence to 1.0D-05 achieved.  Increase integral accuracy.
 Cycle   8  Pass 1  IDiag  1:
 E= -382.300253123214     Delta-E=        0.000092013762 Rises=F Damp=F
 DIIS: error= 1.12D-05 at cycle   1 NSaved=   1.
 NSaved= 1 IEnMin= 1 EnMin= -382.300253123214     IErMin= 1 ErrMin= 1.12D-05
 ErrMax= 1.12D-05 EMaxC= 1.00D-01 BMatC= 2.29D-09 BMatP= 2.29D-09
 IDIUse=1 WtCom= 1.00D+00 WtEn= 0.00D+00
 Coeff-Com:  0.100D+01
 Coeff:      0.100D+01
 Gap=     0.210 Goal=   None    Shift=    0.000
 RMSDP=1.73D-06 MaxDP=1.61D-05 DE= 9.20D-05 OVMax= 6.22D-06

 Cycle   9  Pass 1  IDiag  1:
 E= -382.300253127849     Delta-E=       -0.000000004636 Rises=F Damp=F
 DIIS: error= 1.21D-06 at cycle   2 NSaved=   2.
 NSaved= 2 IEnMin= 2 EnMin= -382.300253127849     IErMin= 2 ErrMin= 1.21D-06
 ErrMax= 1.21D-06 EMaxC= 1.00D-01 BMatC= 1.03D-10 BMatP= 2.29D-09
 IDIUse=1 WtCom= 1.00D+00 WtEn= 0.00D+00
 Coeff-Com:  0.536D-01 0.946D+00
 Coeff:      0.536D-01 0.946D+00
 Gap=     0.210 Goal=   None    Shift=    0.000
 RMSDP=4.37D-07 MaxDP=6.60D-06 DE=-4.64D-09 OVMax= 2.84D-06

 Cycle  10  Pass 1  IDiag  1:
 E= -382.300253127862     Delta-E=       -0.000000000012 Rises=F Damp=F
 DIIS: error= 1.17D-06 at cycle   3 NSaved=   3.
 NSaved= 3 IEnMin= 3 EnMin= -382.300253127862     IErMin= 3 ErrMin= 1.17D-06
 ErrMax= 1.17D-06 EMaxC= 1.00D-01 BMatC= 1.11D-10 BMatP= 1.03D-10
 IDIUse=1 WtCom= 1.00D+00 WtEn= 0.00D+00
 Coeff-Com: -0.233D-01 0.513D+00 0.511D+00
 Coeff:     -0.233D-01 0.513D+00 0.511D+00
 Gap=     0.210 Goal=   None    Shift=    0.000
 RMSDP=2.20D-07 MaxDP=3.45D-06 DE=-1.23D-11 OVMax= 1.39D-06

 Cycle  11  Pass 1  IDiag  1:
 E= -382.300253127990     Delta-E=       -0.000000000128 Rises=F Damp=F
 DIIS: error= 2.17D-07 at cycle   4 NSaved=   4.
 NSaved= 4 IEnMin= 4 EnMin= -382.300253127990     IErMin= 4 ErrMin= 2.17D-07
 ErrMax= 2.17D-07 EMaxC= 1.00D-01 BMatC= 1.79D-12 BMatP= 1.03D-10
 IDIUse=1 WtCom= 1.00D+00 WtEn= 0.00D+00
 Coeff-Com: -0.112D-01 0.215D+00 0.230D+00 0.566D+00
 Coeff:     -0.112D-01 0.215D+00 0.230D+00 0.566D+00
 Gap=     0.210 Goal=   None    Shift=    0.000
 RMSDP=4.22D-08 MaxDP=8.49D-07 DE=-1.28D-10 OVMax= 8.83D-07

 Cycle  12  Pass 1  IDiag  1:
 E= -382.300253127994     Delta-E=       -0.000000000004 Rises=F Damp=F
 DIIS: error= 8.76D-08 at cycle   5 NSaved=   5.
 NSaved= 5 IEnMin= 5 EnMin= -382.300253127994     IErMin= 5 ErrMin= 8.76D-08
 ErrMax= 8.76D-08 EMaxC= 1.00D-01 BMatC= 3.33D-13 BMatP= 1.79D-12
 IDIUse=1 WtCom= 1.00D+00 WtEn= 0.00D+00
 Coeff-Com: -0.348D-02 0.594D-01 0.629D-01 0.319D+00 0.562D+00
 Coeff:     -0.348D-02 0.594D-01 0.629D-01 0.319D+00 0.562D+00
 Gap=     0.210 Goal=   None    Shift=    0.000
 RMSDP=1.37D-08 MaxDP=3.25D-07 DE=-3.87D-12 OVMax= 2.38D-07

 Cycle  13  Pass 1  IDiag  1:
 E= -382.300253127993     Delta-E=        0.000000000001 Rises=F Damp=F
 DIIS: error= 2.85D-08 at cycle   6 NSaved=   6.
 NSaved= 6 IEnMin= 5 EnMin= -382.300253127994     IErMin= 6 ErrMin= 2.85D-08
 ErrMax= 2.85D-08 EMaxC= 1.00D-01 BMatC= 4.08D-14 BMatP= 3.33D-13
 IDIUse=1 WtCom= 1.00D+00 WtEn= 0.00D+00
 Coeff-Com: -0.244D-03 0.762D-04-0.202D-02 0.107D+00 0.312D+00 0.583D+00
 Coeff:     -0.244D-03 0.762D-04-0.202D-02 0.107D+00 0.312D+00 0.583D+00
 Gap=     0.210 Goal=   None    Shift=    0.000
 RMSDP=4.34D-09 MaxDP=7.41D-08 DE= 6.82D-13 OVMax= 4.53D-08

 SCF Done:  E(RB3LYP) =  -382.300253128     A.U. after   13 cycles
             Convg  =    0.4339D-08             -V/T =  2.0167
 KE= 3.760297858748D+02 PE=-1.784698716267D+03 EE= 5.763625409481D+02
 Leave Link  502 at Sun Jun 29 23:41:58 2025, MaxMem=   33554432 cpu:       1.5
 (Enter /home/eric/data/opt/apps/gaussian/g09B.01/g09/l601.exe)
 Copying SCF densities to generalized density rwf, IOpCl= 0 IROHF=0.

 **********************************************************************

            Population analysis using the SCF density.

 **********************************************************************

 Orbital symmetries:
       Occupied  (BU) (AG) (BU) (AG) (BU) (AG) (BU) (AG) (BU) (AG)
                 (AG) (BU) (AG) (BU) (BU) (AG) (AG) (BU) (AG) (AG)
                 (BU) (BU) (BU) (AG) (BU) (BU) (AG) (AU) (BU) (AG)
                 (AG) (BG) (AU) (BG) (BG)
       Virtual   (AU) (AU) (BG) (AU) (BG) (AG) (BU) (BU) (AG) (BU)
                 (AG) (BU) (AG) (BU) (AG) (AG) (BU) (AG) (BU) (BU)
                 (AG) (AG) (BU) (AG) (BU)
 The electronic state is 1-AG.
 Alpha  occ. eigenvalues --  -10.01795 -10.01788 -10.00754 -10.00754 -10.00665
 Alpha  occ. eigenvalues --  -10.00662 -10.00559 -10.00548  -9.99193  -9.99193
 Alpha  occ. eigenvalues --   -0.81796  -0.75504  -0.72068  -0.70413  -0.67021
 Alpha  occ. eigenvalues --   -0.58511  -0.56058  -0.53191  -0.51212  -0.46191
 Alpha  occ. eigenvalues --   -0.43853  -0.41040  -0.39959  -0.39711  -0.37550
 Alpha  occ. eigenvalues --   -0.35777  -0.34896  -0.33016  -0.30527  -0.29544
 Alpha  occ. eigenvalues --   -0.28089  -0.26315  -0.21604  -0.19752  -0.16006
 Alpha virt. eigenvalues --    0.04958   0.09073   0.11645   0.18147   0.28032
 Alpha virt. eigenvalues --    0.31923   0.32955   0.36540   0.37027   0.41287
 Alpha virt. eigenvalues --    0.41597   0.42156   0.44573   0.46877   0.49587
 Alpha virt. eigenvalues --    0.53877   0.57055   0.58675   0.61013   0.62652
 Alpha virt. eigenvalues --    0.64574   0.69281   0.74302   0.80623   0.81603
          Condensed to atoms (all electrons):
              1          2          3          4          5          6
     1  C    4.780385   0.500524  -0.029605  -0.012317  -0.029430   0.500966
     2  C    0.500524   4.806230   0.508294  -0.029430  -0.011748  -0.031087
     3  C   -0.029605   0.508294   4.806999   0.500966  -0.031087  -0.011871
     4  C   -0.012317  -0.029430   0.500966   4.780385   0.500524  -0.029605
     5  C   -0.029430  -0.011748  -0.031087   0.500524   4.806230   0.508294
     6  C    0.500966  -0.031087  -0.011871  -0.029605   0.508294   4.806999
     7  H   -0.025567   0.388652  -0.025123   0.001439   0.000038   0.001436
     8  H    0.001432  -0.024991   0.388914  -0.025107   0.001426   0.000038
     9  H    0.001439   0.000038   0.001436  -0.025567   0.388652  -0.025123
    10  H   -0.025107   0.001426   0.000038   0.001432  -0.024991   0.388914
    11  C    0.000021   0.000837  -0.025478   0.394478  -0.027176   0.000856
    12  C    0.000000   0.000033  -0.006226  -0.025466   0.000653  -0.000008
    13  H   -0.000001  -0.000017   0.001008  -0.024484  -0.003009   0.000007
    14  H    0.000000   0.000000   0.000046   0.001373  -0.000015   0.000000
    15  H   -0.000001  -0.000016  -0.001933  -0.004547   0.000028  -0.000001
    16  C    0.394478  -0.027176   0.000856   0.000021   0.000837  -0.025478
    17  C   -0.025466   0.000653  -0.000008   0.000000   0.000033  -0.006226
    18  H   -0.024484  -0.003009   0.000007  -0.000001  -0.000017   0.001008
    19  H    0.001373  -0.000015   0.000000   0.000000   0.000000   0.000046
    20  H   -0.004547   0.000028  -0.000001  -0.000001  -0.000016  -0.001933
              7          8          9         10         11         12
     1  C   -0.025567   0.001432   0.001439  -0.025107   0.000021   0.000000
     2  C    0.388652  -0.024991   0.000038   0.001426   0.000837   0.000033
     3  C   -0.025123   0.388914   0.001436   0.000038  -0.025478  -0.006226
     4  C    0.001439  -0.025107  -0.025567   0.001432   0.394478  -0.025466
     5  C    0.000038   0.001426   0.388652  -0.024991  -0.027176   0.000653
     6  C    0.001436   0.000038  -0.025123   0.388914   0.000856  -0.000008
     7  H    0.587059  -0.003771   0.000002  -0.000035  -0.000016   0.000001
     8  H   -0.003771   0.587090  -0.000035   0.000002  -0.003921  -0.001930
     9  H    0.000002  -0.000035   0.587059  -0.003771  -0.003911   0.000035
    10  H   -0.000035   0.000002  -0.003771   0.587090  -0.000015   0.000000
    11  C   -0.000016  -0.003921  -0.003911  -0.000015   4.802203   0.598464
    12  C    0.000001  -0.001930   0.000035   0.000000   0.598464   4.843715
    13  H    0.000000   0.000037   0.001003  -0.000001   0.386413  -0.025664
    14  H    0.000000  -0.000025  -0.000002   0.000000  -0.023489   0.386633
    15  H    0.000005   0.001126   0.000001   0.000000  -0.023984   0.386142
    16  C   -0.003911  -0.000015  -0.000016  -0.003921   0.000000   0.000000
    17  C    0.000035   0.000000   0.000001  -0.001930   0.000000   0.000000
    18  H    0.001003  -0.000001   0.000000   0.000037   0.000000   0.000000
    19  H   -0.000002   0.000000   0.000000  -0.000025   0.000000   0.000000
    20  H    0.000001   0.000000   0.000005   0.001126   0.000000   0.000000
             13         14         15         16         17         18
     1  C   -0.000001   0.000000  -0.000001   0.394478  -0.025466  -0.024484
     2  C   -0.000017   0.000000  -0.000016  -0.027176   0.000653  -0.003009
     3  C    0.001008   0.000046  -0.001933   0.000856  -0.000008   0.000007
     4  C   -0.024484   0.001373  -0.004547   0.000021   0.000000  -0.000001
     5  C   -0.003009  -0.000015   0.000028   0.000837   0.000033  -0.000017
     6  C    0.000007   0.000000  -0.000001  -0.025478  -0.006226   0.001008
     7  H    0.000000   0.000000   0.000005  -0.003911   0.000035   0.001003
     8  H    0.000037  -0.000025   0.001126  -0.000015   0.000000  -0.000001
     9  H    0.001003  -0.000002   0.000001  -0.000016   0.000001   0.000000
    10  H   -0.000001   0.000000   0.000000  -0.003921  -0.001930   0.000037
    11  C    0.386413  -0.023489  -0.023984   0.000000   0.000000   0.000000
    12  C   -0.025664   0.386633   0.386142   0.000000   0.000000   0.000000
    13  H    0.588305  -0.004408   0.002000   0.000000   0.000000   0.000000
    14  H   -0.004408   0.585952  -0.024426   0.000000   0.000000   0.000000
    15  H    0.002000  -0.024426   0.589052   0.000000   0.000000   0.000000
    16  C    0.000000   0.000000   0.000000   4.802203   0.598464   0.386413
    17  C    0.000000   0.000000   0.000000   0.598464   4.843715  -0.025664
    18  H    0.000000   0.000000   0.000000   0.386413  -0.025664   0.588305
    19  H    0.000000   0.000000   0.000000  -0.023489   0.386633  -0.004408
    20  H    0.000000   0.000000   0.000000  -0.023984   0.386142   0.002000
             19         20
     1  C    0.001373  -0.004547
     2  C   -0.000015   0.000028
     3  C    0.000000  -0.000001
     4  C    0.000000  -0.000001
     5  C    0.000000  -0.000016
     6  C    0.000046  -0.001933
     7  H   -0.000002   0.000001
     8  H    0.000000   0.000000
     9  H    0.000000   0.000005
    10  H   -0.000025   0.001126
    11  C    0.000000   0.000000
    12  C    0.000000   0.000000
    13  H    0.000000   0.000000
    14  H    0.000000   0.000000
    15  H    0.000000   0.000000
    16  C   -0.023489  -0.023984
    17  C    0.386633   0.386142
    18  H   -0.004408   0.002000
    19  H    0.585952  -0.024426
    20  H   -0.024426   0.589052
 Mulliken atomic charges:
              1
     1  C   -0.004093
     2  C   -0.079226
     3  C   -0.077231
     4  C   -0.004093
     5  C   -0.079226
     6  C   -0.077231
     7  H    0.078754
     8  H    0.079730
     9  H    0.078754
    10  H    0.079730
    11  C   -0.075281
    12  C   -0.156382
    13  H    0.078811
    14  H    0.078362
    15  H    0.076554
    16  C   -0.075281
    17  C   -0.156382
    18  H    0.078811
    19  H    0.078362
    20  H    0.076554
 Sum of Mulliken atomic charges =   0.00000
 Mulliken charges with hydrogens summed into heavy atoms:
              1
     1  C   -0.004093
     2  C   -0.000471
     3  C    0.002499
     4  C   -0.004093
     5  C   -0.000471
     6  C    0.002499
    11  C    0.003530
    12  C   -0.001465
    16  C    0.003530
    17  C   -0.001465
 Sum of Mulliken charges with hydrogens summed into heavy atoms =   0.00000
 Electronic spatial extent (au):  <R**2>=           1815.7757
 Charge=              0.0000 electrons
 Dipole moment (field-independent basis, Debye):
    X=              0.0000    Y=              0.0000    Z=              0.0000  Tot=              0.0000
 Quadrupole moment (field-independent basis, Debye-Ang):
   XX=            -50.8150   YY=            -50.2925   ZZ=            -58.5742
   XY=             -0.3354   XZ=              0.0000   YZ=              0.0000
 Traceless Quadrupole moment (field-independent basis, Debye-Ang):
   XX=              2.4122   YY=              2.9347   ZZ=             -5.3470
   XY=             -0.3354   XZ=              0.0000   YZ=              0.0000
 Octapole moment (field-independent basis, Debye-Ang**2):
  XXX=              0.0000  YYY=              0.0000  ZZZ=              0.0000  XYY=              0.0000
  XXY=              0.0000  XXZ=              0.0000  XZZ=              0.0000  YZZ=              0.0000
  YYZ=              0.0000  XYZ=              0.0000
 Hexadecapole moment (field-independent basis, Debye-Ang**3):
 XXXX=          -1664.3045 YYYY=           -475.3457 ZZZZ=            -47.5456 XXXY=           -220.2417
 XXXZ=              0.0000 YYYX=           -221.7717 YYYZ=              0.0000 ZZZX=              0.0000
 ZZZY=              0.0000 XXYY=           -358.9673 XXZZ=           -328.1119 YYZZ=           -100.7347
 XXYZ=              0.0000 YYXZ=              0.0000 ZZXY=            -85.5625
 N-N= 4.500061363163D+02 E-N=-1.784698716060D+03  KE= 3.760297858748D+02
 Symmetry AG   KE= 1.814872933122D+02
 Symmetry BG   KE= 7.819651369328D+00
 Symmetry AU   KE= 4.680625563978D+00
 Symmetry BU   KE= 1.820422156292D+02
 No NMR shielding tensors so no spin-rotation constants.
 Leave Link  601 at Sun Jun 29 23:41:58 2025, MaxMem=   33554432 cpu:       0.0
 (Enter /home/eric/data/opt/apps/gaussian/g09B.01/g09/l701.exe)
 Compute integral first derivatives.
 ... and contract with generalized density number  0.
 Leave Link  701 at Sun Jun 29 23:41:58 2025, MaxMem=   33554432 cpu:       0.0
 (Enter /home/eric/data/opt/apps/gaussian/g09B.01/g09/l702.exe)
 L702 exits ... SP integral derivatives will be done elsewhere.
 Leave Link  702 at Sun Jun 29 23:41:58 2025, MaxMem=   33554432 cpu:       0.0
 (Enter /home/eric/data/opt/apps/gaussian/g09B.01/g09/l703.exe)
 Compute integral first derivatives, UseDBF=F ICtDFT=           0.
 Integral derivatives from FoFDir, PRISM(SPDF).
 Calling FoFJK, ICntrl=      2127 FMM=F ISym2X=1 I1Cent= 0 IOpClX= 0 NMat=1 NMatS=1 NMatT=0.
 FoFCou: FMM=F IPFlag=           0 FMFlag=      100000 FMFlg1=         800
         NFxFlg=           0 DoJE=F BraDBF=F KetDBF=F FulRan=T
         Omega=  0.000000  0.000000  1.000000  0.000000  0.000000 ICntrl=    2127 IOpCl=  0
         NMat0=    1 NMatS0=    1 NMatT0=    0 NMatD0=    1 NMtDS0=    0 NMtDT0=    0
         I1Cent=           0 NGrid=           0.
 Petite list used in FoFCou.
 Leave Link  703 at Sun Jun 29 23:41:59 2025, MaxMem=   33554432 cpu:       0.5
 (Enter /home/eric/data/opt/apps/gaussian/g09B.01/g09/l716.exe)
 Dipole        =-8.88178420D-15-4.88498131D-15 0.00000000D+00
 ***** Axes restored to original set *****
 -------------------------------------------------------------------
 Center     Atomic                   Forces (Hartrees/Bohr)
 Number     Number              X              Y              Z
 -------------------------------------------------------------------
      1        6           0.008599107   -0.050677114    0.000000000
      2        6           0.019242148    0.006174197    0.000000000
      3        6           0.019931429   -0.001547345    0.000000000
      4        6          -0.008599107    0.050677114    0.000000000
      5        6          -0.019242148   -0.006174197    0.000000000
      6        6          -0.019931429    0.001547345    0.000000000
      7        1          -0.001344315   -0.000187383    0.000000000
      8        1          -0.001457212   -0.003440606    0.000000000
      9        1           0.001344315    0.000187383    0.000000000
     10        1           0.001457212    0.003440606    0.000000000
     11        6          -0.004622014   -0.039244752    0.000000000
     12        6           0.013019317    0.023322969    0.000000000
     13        1          -0.000324805    0.002985725    0.000000000
     14        1          -0.001996350   -0.001522154    0.000000000
     15        1          -0.002850430    0.000207408    0.000000000
     16        6           0.004622014    0.039244752    0.000000000
     17        6          -0.013019317   -0.023322969    0.000000000
     18        1           0.000324805   -0.002985725    0.000000000
     19        1           0.001996350    0.001522154    0.000000000
     20        1           0.002850430   -0.000207408    0.000000000
 -------------------------------------------------------------------
 Cartesian Forces:  Max     0.050677114 RMS     0.013861725
 Leave Link  716 at Sun Jun 29 23:41:59 2025, MaxMem=   33554432 cpu:       0.0
 (Enter /home/eric/data/opt/apps/gaussian/g09B.01/g09/l103.exe)

 GradGradGradGradGradGradGradGradGradGradGradGradGradGradGradGradGradGrad
 Berny optimization.
 Internal  Forces:  Max     0.025406161 RMS     0.008125092
 Search for a local minimum.
 Step number   1 out of a maximum of  100
 All quantities printed in internal units (Hartrees-Bohrs-Radians)
 RMS Force = .81251D-02 SwitMx=.10000D-02 MixMth= 1
 Mixed Optimization -- RFO/linear search
 Second derivative matrix not updated -- first step.
 ITU=  0
     Eigenvalues ---    0.00235   0.00235   0.01514   0.01617   0.01762
     Eigenvalues ---    0.01762   0.02154   0.02155   0.02156   0.02156
     Eigenvalues ---    0.02157   0.02158   0.02158   0.03069   0.03069
     Eigenvalues ---    0.03069   0.03069   0.16000   0.16000   0.16000
     Eigenvalues ---    0.16000   0.16000   0.16000   0.16000   0.16000
     Eigenvalues ---    0.16000   0.16000   0.22000   0.22000   0.22000
     Eigenvalues ---    0.22982   0.24000   0.25000   0.25000   0.28505
     Eigenvalues ---    0.28505   0.33718   0.33718   0.33720   0.33720
     Eigenvalues ---    0.33875   0.33875   0.33875   0.33875   0.33875
     Eigenvalues ---    0.33875   0.42142   0.42486   0.46432   0.46472
     Eigenvalues ---    0.46477   0.46508   0.60481   0.60481
 RFO step:  Lambda=-1.61212101D-02 EMin= 2.34697337D-03
 Linear search not attempted -- first point.
 Iteration  1 RMS(Cart)=  0.09218064 RMS(Int)=  0.00222065
 Iteration  2 RMS(Cart)=  0.00317248 RMS(Int)=  0.00000212
 Iteration  3 RMS(Cart)=  0.00000692 RMS(Int)=  0.00000000
 Iteration  4 RMS(Cart)=  0.00000000 RMS(Int)=  0.00000000
 ClnCor:  largest displacement from symmetrization is 1.27D-08 for atom     9.
 Variable       Old X    -DE/DX   Delta X   Delta X   Delta X     New X
                                 (Linear)    (Quad)   (Total)
    R1        2.63647   0.02401   0.00000   0.04998   0.04998   2.68645
    R2        2.63598   0.02541   0.00000   0.05283   0.05283   2.68881
    R3        2.91048  -0.01461   0.00000  -0.04851  -0.04851   2.86197
    R4        2.63562   0.01295   0.00000   0.02691   0.02691   2.66253
    R5        2.07805  -0.00122   0.00000  -0.00344  -0.00344   2.07461
    R6        2.63598   0.02541   0.00000   0.05283   0.05283   2.68881
    R7        2.07809  -0.00337   0.00000  -0.00955  -0.00955   2.06855
    R8        2.63647   0.02401   0.00000   0.04998   0.04998   2.68645
    R9        2.91048  -0.01461   0.00000  -0.04851  -0.04851   2.86197
   R10        2.63562   0.01295   0.00000   0.02691   0.02691   2.66253
   R11        2.07805  -0.00122   0.00000  -0.00344  -0.00344   2.07461
   R12        2.07809  -0.00337   0.00000  -0.00955  -0.00955   2.06855
   R13        2.50562   0.02121   0.00000   0.03416   0.03416   2.53978
   R14        2.07542   0.00099   0.00000   0.00279   0.00279   2.07820
   R15        2.07542  -0.00109   0.00000  -0.00308  -0.00308   2.07234
   R16        2.07542  -0.00282   0.00000  -0.00795  -0.00795   2.06747
   R17        2.50562   0.02121   0.00000   0.03416   0.03416   2.53978
   R18        2.07542   0.00099   0.00000   0.00279   0.00279   2.07820
   R19        2.07542  -0.00109   0.00000  -0.00308  -0.00308   2.07234
   R20        2.07542  -0.00282   0.00000  -0.00795  -0.00795   2.06747
    A1        2.09426  -0.00838   0.00000  -0.03273  -0.03273   2.06153
    A2        2.09444  -0.00689   0.00000  -0.02528  -0.02528   2.06916
    A3        2.09449   0.01528   0.00000   0.05802   0.05802   2.15250
    A4        2.09455   0.00513   0.00000   0.02036   0.02036   2.11490
    A5        2.09406  -0.00320   0.00000  -0.01375  -0.01375   2.08031
    A6        2.09458  -0.00194   0.00000  -0.00661  -0.00661   2.08797
    A7        2.09438   0.00325   0.00000   0.01238   0.01238   2.10676
    A8        2.09462  -0.00330   0.00000  -0.01569  -0.01569   2.07893
    A9        2.09419   0.00005   0.00000   0.00331   0.00331   2.09750
   A10        2.09426  -0.00838   0.00000  -0.03273  -0.03273   2.06153
   A11        2.09449   0.01528   0.00000   0.05802   0.05802   2.15250
   A12        2.09444  -0.00689   0.00000  -0.02528  -0.02528   2.06916
   A13        2.09455   0.00513   0.00000   0.02036   0.02036   2.11490
   A14        2.09406  -0.00320   0.00000  -0.01375  -0.01375   2.08031
   A15        2.09458  -0.00194   0.00000  -0.00661  -0.00661   2.08797
   A16        2.09438   0.00325   0.00000   0.01238   0.01238   2.10676
   A17        2.09419   0.00005   0.00000   0.00331   0.00331   2.09750
   A18        2.09462  -0.00330   0.00000  -0.01569  -0.01569   2.07893
   A19        2.14146   0.01736   0.00000   0.07353   0.07353   2.21499
   A20        1.99989  -0.00574   0.00000  -0.02005  -0.02005   1.97984
   A21        2.14183  -0.01162   0.00000  -0.05348  -0.05348   2.08836
   A22        2.14180  -0.00282   0.00000  -0.01600  -0.01600   2.12580
   A23        2.14183   0.00095   0.00000   0.00540   0.00540   2.14723
   A24        1.99956   0.00187   0.00000   0.01060   0.01060   2.01016
   A25        2.14146   0.01736   0.00000   0.07353   0.07353   2.21499
   A26        1.99989  -0.00574   0.00000  -0.02005  -0.02005   1.97984
   A27        2.14183  -0.01162   0.00000  -0.05348  -0.05348   2.08836
   A28        2.14180  -0.00282   0.00000  -0.01600  -0.01600   2.12580
   A29        2.14183   0.00095   0.00000   0.00540   0.00540   2.14723
   A30        1.99956   0.00187   0.00000   0.01060   0.01060   2.01016
    D1        0.00000   0.00000   0.00000   0.00000   0.00000   0.00000
    D2        3.14159   0.00000   0.00000   0.00000   0.00000   3.14159
    D3        3.14159   0.00000   0.00000   0.00000   0.00000   3.14159
    D4        0.00000   0.00000   0.00000   0.00000   0.00000   0.00000
    D5        0.00000   0.00000   0.00000   0.00000   0.00000   0.00000
    D6        3.14159   0.00000   0.00000   0.00000   0.00000   3.14159
    D7        3.14159   0.00000   0.00000   0.00000   0.00000   3.14159
    D8        0.00000   0.00000   0.00000   0.00000   0.00000   0.00000
    D9        3.14159   0.00000   0.00000   0.00000   0.00000   3.14159
   D10        0.00000   0.00000   0.00000   0.00000   0.00000   0.00000
   D11        0.00000   0.00000   0.00000   0.00000   0.00000   0.00000
   D12        3.14159   0.00000   0.00000   0.00000   0.00000   3.14159
   D13        0.00000   0.00000   0.00000   0.00000   0.00000   0.00000
   D14        3.14159   0.00000   0.00000   0.00000   0.00000   3.14159
   D15        3.14159   0.00000   0.00000   0.00000   0.00000   3.14159
   D16        0.00000   0.00000   0.00000   0.00000   0.00000   0.00000
   D17        0.00000   0.00000   0.00000   0.00000   0.00000   0.00000
   D18        3.14159   0.00000   0.00000   0.00000   0.00000   3.14159
   D19        3.14159   0.00000   0.00000   0.00000   0.00000   3.14159
   D20        0.00000   0.00000   0.00000   0.00000   0.00000   0.00000
   D21        0.00000   0.00000   0.00000   0.00000   0.00000   0.00000
   D22        3.14159   0.00000   0.00000   0.00000   0.00000   3.14159
   D23        3.14159   0.00000   0.00000   0.00000   0.00000   3.14159
   D24        0.00000   0.00000   0.00000   0.00000   0.00000   0.00000
   D25        0.00000   0.00000   0.00000   0.00000   0.00000   0.00000
   D26        3.14159   0.00000   0.00000   0.00000   0.00000   3.14159
   D27        3.14159   0.00000   0.00000   0.00000   0.00000   3.14159
   D28        0.00000   0.00000   0.00000   0.00000   0.00000   0.00000
   D29        0.00000   0.00000   0.00000   0.00000   0.00000   0.00000
   D30        3.14159   0.00000   0.00000   0.00000   0.00000   3.14159
   D31        3.14159   0.00000   0.00000   0.00000   0.00000   3.14159
   D32        0.00000   0.00000   0.00000   0.00000   0.00000   0.00000
   D33        3.14159   0.00000   0.00000   0.00000   0.00000   3.14159
   D34        0.00000   0.00000   0.00000   0.00000   0.00000   0.00000
   D35        0.00000   0.00000   0.00000   0.00000   0.00000   0.00000
   D36        3.14159   0.00000   0.00000   0.00000   0.00000   3.14159
   D37        3.14159   0.00000   0.00000   0.00000   0.00000   3.14159
   D38        0.00000   0.00000   0.00000   0.00000   0.00000   0.00000
   D39        0.00000   0.00000   0.00000   0.00000   0.00000   0.00000
   D40        3.14159   0.00000   0.00000   0.00000   0.00000   3.14159
         Item               Value     Threshold  Converged?
 Maximum Force            0.025406     0.000450     NO 
 RMS     Force            0.008125     0.000300     NO 
 Maximum Displacement     0.375990     0.001800     NO 
 RMS     Displacement     0.093026     0.001200     NO 
 Predicted change in Energy=-8.462289D-03
 GradGradGradGradGradGradGradGradGradGradGradGradGradGradGradGradGradGrad

 Leave Link  103 at Sun Jun 29 23:41:59 2025, MaxMem=   33554432 cpu:       0.0
 (Enter /home/eric/data/opt/apps/gaussian/g09B.01/g09/l202.exe)
                          Input orientation:                          
 ---------------------------------------------------------------------
 Center     Atomic      Atomic             Coordinates (Angstroms)
 Number     Number       Type             X           Y           Z
 ---------------------------------------------------------------------
      1          6           0        0.232311   -1.416814    0.000000
      2          6           0        1.315780   -0.496452    0.000000
      3          6           0        1.091205    0.894486    0.000000
      4          6           0       -0.232311    1.416814    0.000000
      5          6           0       -1.315780    0.496452    0.000000
      6          6           0       -1.091205   -0.894486    0.000000
      7          1           0        2.344356   -0.880211    0.000000
      8          1           0        1.950416    1.572695    0.000000
      9          1           0       -2.344356    0.880211    0.000000
     10          1           0       -1.950416   -1.572695    0.000000
     11          6           0       -0.541825    2.899339    0.000000
     12          6           0        0.345174    3.909066    0.000000
     13          1           0       -1.618932    3.121297    0.000000
     14          1           0        0.026326    4.958326    0.000000
     15          1           0        1.427851    3.751686    0.000000
     16          6           0        0.541825   -2.899339    0.000000
     17          6           0       -0.345174   -3.909066    0.000000
     18          1           0        1.618932   -3.121297    0.000000
     19          1           0       -0.026326   -4.958326    0.000000
     20          1           0       -1.427851   -3.751686    0.000000
 ---------------------------------------------------------------------
                    Distance matrix (angstroms):
                    1          2          3          4          5
     1  C    0.000000
     2  C    1.421609   0.000000
     3  C    2.465726   1.408950   0.000000
     4  C    2.871466   2.461131   1.422856   0.000000
     5  C    2.461131   2.812643   2.439673   1.421609   0.000000
     6  C    1.422856   2.439673   2.821937   2.465726   1.408950
     7  H    2.179146   1.097835   2.172541   3.451888   3.910472
     8  H    3.448050   2.164286   1.094629   2.188286   3.438944
     9  H    3.451888   3.910472   3.435590   2.179146   1.097835
    10  H    2.188286   3.438944   3.916432   3.448050   2.164286
    11  C    4.385027   3.870671   2.585773   1.514490   2.524455
    12  C    5.327076   4.511171   3.105520   2.558283   3.795353
    13  H    4.901178   4.658394   3.507638   2.197267   2.642293
    14  H    6.378466   5.605113   4.201043   3.550944   4.659353
    15  H    5.304970   4.249616   2.876964   2.864920   4.257236
    16  C    1.514490   2.524455   3.833396   4.385027   3.870671
    17  C    2.558283   3.795353   5.013711   5.327076   4.511171
    18  H    2.197267   2.642293   4.050309   4.901178   4.658394
    19  H    3.550944   4.659353   5.958547   6.378466   5.605113
    20  H    2.864920   4.257236   5.285125   5.304970   4.249616
                    6          7          8          9         10
     6  C    0.000000
     7  H    3.435590   0.000000
     8  H    3.916432   2.484338   0.000000
     9  H    2.172541   5.008304   4.350242   0.000000
    10  H    1.094629   4.350242   5.010985   2.484338   0.000000
    11  C    3.833396   4.755527   2.823340   2.706658   4.688627
    12  C    5.013711   5.189788   2.834683   4.050622   5.943017
    13  H    4.050309   5.632026   3.890811   2.355569   4.705682
    14  H    5.958547   6.281861   3.894177   4.717113   6.823617
    15  H    5.285125   4.721700   2.240775   4.740772   6.305690
    16  C    2.585773   2.706658   4.688627   4.755527   2.823340
    17  C    3.105520   4.050622   5.943017   5.189788   2.834683
    18  H    3.507638   2.355569   4.705682   5.632026   3.890811
    19  H    4.201043   4.717113   6.823617   6.281861   3.894177
    20  H    2.876964   4.740772   6.305690   4.721700   2.240775
                   11         12         13         14         15
    11  C    0.000000
    12  C    1.343993   0.000000
    13  H    1.099738   2.116198   0.000000
    14  H    2.135936   1.096636   2.466080   0.000000
    15  H    2.146187   1.094055   3.111314   1.849392   0.000000
    16  C    5.899065   6.811245   6.396634   7.874556   6.709782
    17  C    6.811245   7.848553   7.144821   8.875171   7.863253
    18  H    6.396634   7.144821   7.032335   8.235089   6.875638
    19  H    7.874556   8.875171   8.235089   9.916791   8.830568
    20  H    6.709782   7.863253   6.875638   8.830568   8.028426
                   16         17         18         19         20
    16  C    0.000000
    17  C    1.343993   0.000000
    18  H    1.099738   2.116198   0.000000
    19  H    2.135936   1.096636   2.466080   0.000000
    20  H    2.146187   1.094055   3.111314   1.849392   0.000000
 Stoichiometry    C10H10
 Framework group  C2H[SGH(C10H10)]
 Deg. of freedom    19
 Full point group                 C2H     NOp   4
 Largest Abelian subgroup         C2H     NOp   4
 Largest concise Abelian subgroup C2      NOp   2
                         Standard orientation:                         
 ---------------------------------------------------------------------
 Center     Atomic      Atomic             Coordinates (Angstroms)
 Number     Number       Type             X           Y           Z
 ---------------------------------------------------------------------
      1          6           0        1.232614    0.736201    0.000000
      2          6           0       -0.021230    1.406161    0.000000
      3          6           0       -1.232614    0.686655    0.000000
      4          6           0       -1.232614   -0.736201    0.000000
      5          6           0        0.021230   -1.406161    0.000000
      6          6           0        1.232614   -0.686655    0.000000
      7          1           0       -0.041853    2.503802    0.000000
      8          1           0       -2.178888    1.236908    0.000000
      9          1           0        0.041853   -2.503802    0.000000
     10          1           0        2.178888   -1.236908    0.000000
     11          6           0       -2.498011   -1.568338    0.000000
     12          6           0       -3.762857   -1.113936    0.000000
     13          1           0       -2.309067   -2.651724    0.000000
     14          1           0       -4.621811   -1.795705    0.000000
     15          1           0       -4.013913   -0.049076    0.000000
     16          6           0        2.498011    1.568338    0.000000
     17          6           0        3.762857    1.113936    0.000000
     18          1           0        2.309067    2.651724    0.000000
     19          1           0        4.621811    1.795705    0.000000
     20          1           0        4.013913    0.049076    0.000000
 ---------------------------------------------------------------------
 Rotational constants (GHZ):      4.6171159      0.6775409      0.5908381
 Leave Link  202 at Sun Jun 29 23:41:59 2025, MaxMem=   33554432 cpu:       0.0
 (Enter /home/eric/data/opt/apps/gaussian/g09B.01/g09/l301.exe)
 Standard basis: STO-3G (5D, 7F)
 Ernie: Thresh=  0.10000D-02 Tol=  0.10000D-05 Strict=F.
 There are    25 symmetry adapted basis functions of AG  symmetry.
 There are     5 symmetry adapted basis functions of BG  symmetry.
 There are     5 symmetry adapted basis functions of AU  symmetry.
 There are    25 symmetry adapted basis functions of BU  symmetry.
 Integral buffers will be    131072 words long.
 Raffenetti 2 integral format.
 Two-electron integral symmetry is turned on.
    60 basis functions,   180 primitive gaussians,    60 cartesian basis functions
    35 alpha electrons       35 beta electrons
       nuclear repulsion energy       444.3623398219 Hartrees.
 IExCor=  402 DFT=T Ex+Corr=B3LYP ExCW=0 ScaHFX=  0.200000
 ScaDFX=  0.800000  0.720000  1.000000  0.810000 ScalE2=  1.000000  1.000000
 IRadAn=      0 IRanWt=     -1 IRanGd=            0 ICorTp=0
 NAtoms=   20 NActive=   20 NUniq=   10 SFac= 4.00D+00 NAtFMM=   50 NAOKFM=F Big=F
 Leave Link  301 at Sun Jun 29 23:41:59 2025, MaxMem=   33554432 cpu:       0.0
 (Enter /home/eric/data/opt/apps/gaussian/g09B.01/g09/l302.exe)
 NPDir=0 NMtPBC=     1 NCelOv=     1 NCel=       1 NClECP=     1 NCelD=      1
         NCelK=      1 NCelE2=     1 NClLst=     1 CellRange=     0.0.
 One-electron integrals computed using PRISM.
 One-electron integral symmetry used in STVInt
 NBasis=    60 RedAO= T  NBF=    25     5     5    25
 NBsUse=    60 1.00D-06 NBFU=    25     5     5    25
 Precomputing XC quadrature grid using
 IXCGrd= 2 IRadAn=           0 IRanWt=          -1 IRanGd=           0 AccXCQ= 0.00D+00.
 NRdTot=    1260 NPtTot=      160388 NUsed=      169481 NTot=      169513
 NSgBfM=    59    59    59    59    59 NAtAll=    20    20.
 Leave Link  302 at Sun Jun 29 23:41:59 2025, MaxMem=   33554432 cpu:       0.2
 (Enter /home/eric/data/opt/apps/gaussian/g09B.01/g09/l303.exe)
 DipDrv:  MaxL=1.
 Leave Link  303 at Sun Jun 29 23:41:59 2025, MaxMem=   33554432 cpu:       0.0
 (Enter /home/eric/data/opt/apps/gaussian/g09B.01/g09/l401.exe)
 Initial guess read from the read-write file.
 B after Tr=     0.000000    0.000000    0.000000
         Rot=    1.000000    0.000000    0.000000    0.000000 Ang=   0.00 deg.
 Guess basis will be translated and rotated to current coordinates.
 Initial guess orbital symmetries:
       Occupied  (BU) (AG) (BU) (AG) (BU) (AG) (BU) (AG) (BU) (AG)
                 (AG) (BU) (AG) (BU) (BU) (AG) (AG) (BU) (AG) (AG)
                 (BU) (BU) (BU) (AG) (BU) (BU) (AG) (AU) (BU) (AG)
                 (AG) (BG) (AU) (BG) (BG)
       Virtual   (AU) (AU) (BG) (AU) (BG) (AG) (BU) (BU) (AG) (BU)
                 (AG) (BU) (AG) (BU) (AG) (AG) (BU) (AG) (BU) (BU)
                 (AG) (AG) (BU) (AG) (BU)
 The electronic state of the initial guess is 1-AG.
 Generating alternative initial guess.
 Harris functional with IExCor=  402 diagonalized for initial guess.
 ExpMin= 1.69D-01 ExpMax= 7.16D+01 ExpMxC= 7.16D+01 IAcc=1 IRadAn=         1 AccDes= 0.00D+00
 HarFok:  IExCor=  402 AccDes= 0.00D+00 IRadAn=         1 IDoV= 1
 ScaDFX=  1.000000  1.000000  1.000000  1.000000
 FoFCou: FMM=F IPFlag=           0 FMFlag=      100000 FMFlg1=           0
         NFxFlg=           0 DoJE=T BraDBF=F KetDBF=T FulRan=T
         Omega=  0.000000  0.000000  1.000000  0.000000  0.000000 ICntrl=     500 IOpCl=  0
         NMat0=    1 NMatS0=    1 NMatT0=    0 NMatD0=    1 NMtDS0=    0 NMtDT0=    0
         I1Cent=           4 NGrid=           0.
 Petite list used in FoFCou.
 Harris En= -382.195763114601    
 Leave Link  401 at Sun Jun 29 23:41:59 2025, MaxMem=   33554432 cpu:       0.1
 (Enter /home/eric/data/opt/apps/gaussian/g09B.01/g09/l502.exe)
 Closed shell SCF:
 Requested convergence on RMS density matrix=1.00D-08 within 128 cycles.
 Requested convergence on MAX density matrix=1.00D-06.
 Requested convergence on             energy=1.00D-06.
 No special actions if energy rises.
 Using DIIS extrapolation, IDIIS=  1040.
 Integral symmetry usage will be decided dynamically.
       169288 words used for storage of precomputed grid.
 Keep R1 ints in memory in canonical form, NReq=2755635.
 IEnd=      199234 IEndB=      199234 NGot=    33554432 MDV=    31700106
 LenX=    31700106 LenY=    31696065
 Symmetry not used in FoFDir.
 MinBra= 0 MaxBra= 1 Meth= 1.
 IRaf=       0 NMat=   1 IRICut=       1 DoRegI=T DoRafI=F ISym2E= 0 JSym2E=0.
 Integral accuracy reduced to 1.0D-05 until final iterations.

 Cycle   1  Pass 0  IDiag  1:
 E= -382.293430177831    
 DIIS: error= 1.10D-02 at cycle   1 NSaved=   1.
 NSaved= 1 IEnMin= 1 EnMin= -382.293430177831     IErMin= 1 ErrMin= 1.10D-02
 ErrMax= 1.10D-02 EMaxC= 1.00D-01 BMatC= 6.88D-03 BMatP= 6.88D-03
 IDIUse=3 WtCom= 8.90D-01 WtEn= 1.10D-01
 Coeff-Com:  0.100D+01
 Coeff-En:   0.100D+01
 Coeff:      0.100D+01
 Recover alternate guess density for next cycle.
 RMSDP=5.66D-03 MaxDP=5.79D-02              OVMax= 0.00D+00

 Cycle   2  Pass 0  IDiag  1:
 E= -382.258793232967     Delta-E=        0.034636944864 Rises=F Damp=F
 Switch densities from cycles 1 and 2 for lowest energy.
 DIIS: error= 1.74D-02 at cycle   2 NSaved=   2.
 NSaved= 2 IEnMin= 1 EnMin= -382.293430177831     IErMin= 1 ErrMin= 1.10D-02
 ErrMax= 1.74D-02 EMaxC= 1.00D+00 BMatC= 3.55D-02 BMatP= 6.88D-03
 IDIUse=1 WtCom= 1.00D+00 WtEn= 0.00D+00
 Coeff-Com:  0.850D+00 0.150D+00
 Coeff:      0.850D+00 0.150D+00
 Gap=     0.194 Goal=   None    Shift=    0.000
 RMSDP=2.98D-03 MaxDP=3.53D-02 DE= 3.46D-02 OVMax= 1.63D-02

 Cycle   3  Pass 0  IDiag  1:
 E= -382.306976125464     Delta-E=       -0.048182892497 Rises=F Damp=F
 DIIS: error= 2.21D-03 at cycle   3 NSaved=   3.
 NSaved= 3 IEnMin= 3 EnMin= -382.306976125464     IErMin= 3 ErrMin= 2.21D-03
 ErrMax= 2.21D-03 EMaxC= 1.00D+00 BMatC= 4.97D-04 BMatP= 6.88D-03
 IDIUse=1 WtCom= 1.00D+00 WtEn= 0.00D+00
 Coeff-Com: -0.442D-01 0.937D-01 0.951D+00
 Coeff:     -0.442D-01 0.937D-01 0.951D+00
 Gap=     0.194 Goal=   None    Shift=    0.000
 RMSDP=7.73D-04 MaxDP=1.53D-02 DE=-4.82D-02 OVMax= 9.56D-03

 Cycle   4  Pass 0  IDiag  1:
 E= -382.307225952518     Delta-E=       -0.000249827054 Rises=F Damp=F
 DIIS: error= 2.91D-03 at cycle   4 NSaved=   4.
 NSaved= 4 IEnMin= 4 EnMin= -382.307225952518     IErMin= 3 ErrMin= 2.21D-03
 ErrMax= 2.91D-03 EMaxC= 1.00D+00 BMatC= 3.37D-04 BMatP= 4.97D-04
 IDIUse=1 WtCom= 1.00D+00 WtEn= 0.00D+00
 Coeff-Com: -0.387D-01 0.470D-01 0.590D+00 0.402D+00
 Coeff:     -0.387D-01 0.470D-01 0.590D+00 0.402D+00
 Gap=     0.194 Goal=   None    Shift=    0.000
 RMSDP=3.94D-04 MaxDP=9.70D-03 DE=-2.50D-04 OVMax= 7.24D-03

 Cycle   5  Pass 0  IDiag  1:
 E= -382.307644098667     Delta-E=       -0.000418146149 Rises=F Damp=F
 DIIS: error= 3.09D-04 at cycle   5 NSaved=   5.
 NSaved= 5 IEnMin= 5 EnMin= -382.307644098667     IErMin= 5 ErrMin= 3.09D-04
 ErrMax= 3.09D-04 EMaxC= 1.00D+00 BMatC= 3.83D-06 BMatP= 3.37D-04
 IDIUse=1 WtCom= 1.00D+00 WtEn= 0.00D+00
 Coeff-Com: -0.649D-02 0.506D-02 0.933D-01 0.128D+00 0.780D+00
 Coeff:     -0.649D-02 0.506D-02 0.933D-01 0.128D+00 0.780D+00
 Gap=     0.194 Goal=   None    Shift=    0.000
 RMSDP=5.71D-05 MaxDP=1.14D-03 DE=-4.18D-04 OVMax= 1.15D-03

 Cycle   6  Pass 0  IDiag  1:
 E= -382.307647892276     Delta-E=       -0.000003793608 Rises=F Damp=F
 DIIS: error= 1.06D-04 at cycle   6 NSaved=   6.
 NSaved= 6 IEnMin= 6 EnMin= -382.307647892276     IErMin= 6 ErrMin= 1.06D-04
 ErrMax= 1.06D-04 EMaxC= 1.00D+00 BMatC= 1.01D-06 BMatP= 3.83D-06
 IDIUse=1 WtCom= 1.00D+00 WtEn= 0.00D+00
 Coeff-Com: -0.138D-02 0.657D-04 0.188D-01 0.498D-01 0.448D+00 0.485D+00
 Coeff:     -0.138D-02 0.657D-04 0.188D-01 0.498D-01 0.448D+00 0.485D+00
 Gap=     0.194 Goal=   None    Shift=    0.000
 RMSDP=2.14D-05 MaxDP=3.19D-04 DE=-3.79D-06 OVMax= 3.03D-04

 Cycle   7  Pass 0  IDiag  1:
 E= -382.307649162303     Delta-E=       -0.000001270027 Rises=F Damp=F
 DIIS: error= 4.99D-06 at cycle   7 NSaved=   7.
 NSaved= 7 IEnMin= 7 EnMin= -382.307649162303     IErMin= 7 ErrMin= 4.99D-06
 ErrMax= 4.99D-06 EMaxC= 1.00D+00 BMatC= 1.52D-09 BMatP= 1.01D-06
 IDIUse=1 WtCom= 1.00D+00 WtEn= 0.00D+00
 Coeff-Com: -0.210D-03-0.431D-04 0.291D-02 0.953D-02 0.862D-01 0.105D+00
 Coeff-Com:  0.796D+00
 Coeff:     -0.210D-03-0.431D-04 0.291D-02 0.953D-02 0.862D-01 0.105D+00
 Coeff:      0.796D+00
 Gap=     0.194 Goal=   None    Shift=    0.000
 RMSDP=1.36D-06 MaxDP=1.87D-05 DE=-1.27D-06 OVMax= 6.93D-06

 Initial convergence to 1.0D-05 achieved.  Increase integral accuracy.
 Cycle   8  Pass 1  IDiag  1:
 E= -382.307648308259     Delta-E=        0.000000854044 Rises=F Damp=F
 DIIS: error= 9.96D-06 at cycle   1 NSaved=   1.
 NSaved= 1 IEnMin= 1 EnMin= -382.307648308259     IErMin= 1 ErrMin= 9.96D-06
 ErrMax= 9.96D-06 EMaxC= 1.00D+00 BMatC= 2.41D-09 BMatP= 2.41D-09
 IDIUse=1 WtCom= 1.00D+00 WtEn= 0.00D+00
 Coeff-Com:  0.100D+01
 Coeff:      0.100D+01
 Gap=     0.194 Goal=   None    Shift=    0.000
 RMSDP=1.36D-06 MaxDP=1.87D-05 DE= 8.54D-07 OVMax= 1.49D-05

 Cycle   9  Pass 1  IDiag  1:
 E= -382.307648311409     Delta-E=       -0.000000003150 Rises=F Damp=F
 DIIS: error= 4.75D-06 at cycle   2 NSaved=   2.
 NSaved= 2 IEnMin= 2 EnMin= -382.307648311409     IErMin= 2 ErrMin= 4.75D-06
 ErrMax= 4.75D-06 EMaxC= 1.00D+00 BMatC= 9.62D-10 BMatP= 2.41D-09
 IDIUse=1 WtCom= 1.00D+00 WtEn= 0.00D+00
 Coeff-Com:  0.354D+00 0.646D+00
 Coeff:      0.354D+00 0.646D+00
 Gap=     0.194 Goal=   None    Shift=    0.000
 RMSDP=9.80D-07 MaxDP=1.81D-05 DE=-3.15D-09 OVMax= 9.79D-06

 Cycle  10  Pass 1  IDiag  1:
 E= -382.307648312397     Delta-E=       -0.000000000989 Rises=F Damp=F
 DIIS: error= 2.41D-06 at cycle   3 NSaved=   3.
 NSaved= 3 IEnMin= 3 EnMin= -382.307648312397     IErMin= 3 ErrMin= 2.41D-06
 ErrMax= 2.41D-06 EMaxC= 1.00D+00 BMatC= 2.29D-10 BMatP= 9.62D-10
 IDIUse=1 WtCom= 1.00D+00 WtEn= 0.00D+00
 Coeff-Com: -0.693D-02 0.322D+00 0.685D+00
 Coeff:     -0.693D-02 0.322D+00 0.685D+00
 Gap=     0.194 Goal=   None    Shift=    0.000
 RMSDP=3.26D-07 MaxDP=5.97D-06 DE=-9.89D-10 OVMax= 2.72D-06

 Cycle  11  Pass 1  IDiag  1:
 E= -382.307648312667     Delta-E=       -0.000000000269 Rises=F Damp=F
 DIIS: error= 3.25D-07 at cycle   4 NSaved=   4.
 NSaved= 4 IEnMin= 4 EnMin= -382.307648312667     IErMin= 4 ErrMin= 3.25D-07
 ErrMax= 3.25D-07 EMaxC= 1.00D+00 BMatC= 7.90D-12 BMatP= 2.29D-10
 IDIUse=1 WtCom= 1.00D+00 WtEn= 0.00D+00
 Coeff-Com: -0.116D-01 0.143D+00 0.329D+00 0.539D+00
 Coeff:     -0.116D-01 0.143D+00 0.329D+00 0.539D+00
 Gap=     0.194 Goal=   None    Shift=    0.000
 RMSDP=6.75D-08 MaxDP=9.18D-07 DE=-2.69D-10 OVMax= 3.26D-07

 Cycle  12  Pass 1  IDiag  1:
 E= -382.307648312679     Delta-E=       -0.000000000012 Rises=F Damp=F
 DIIS: error= 8.24D-08 at cycle   5 NSaved=   5.
 NSaved= 5 IEnMin= 5 EnMin= -382.307648312679     IErMin= 5 ErrMin= 8.24D-08
 ErrMax= 8.24D-08 EMaxC= 1.00D+00 BMatC= 2.61D-13 BMatP= 7.90D-12
 IDIUse=1 WtCom= 1.00D+00 WtEn= 0.00D+00
 Coeff-Com: -0.512D-02 0.542D-01 0.123D+00 0.249D+00 0.579D+00
 Coeff:     -0.512D-02 0.542D-01 0.123D+00 0.249D+00 0.579D+00
 Gap=     0.194 Goal=   None    Shift=    0.000
 RMSDP=1.48D-08 MaxDP=3.55D-07 DE=-1.23D-11 OVMax= 2.81D-07

 Cycle  13  Pass 1  IDiag  1:
 E= -382.307648312679     Delta-E=        0.000000000000 Rises=F Damp=F
 DIIS: error= 4.23D-08 at cycle   6 NSaved=   6.
 NSaved= 6 IEnMin= 5 EnMin= -382.307648312679     IErMin= 6 ErrMin= 4.23D-08
 ErrMax= 4.23D-08 EMaxC= 1.00D+00 BMatC= 7.95D-14 BMatP= 2.61D-13
 IDIUse=1 WtCom= 1.00D+00 WtEn= 0.00D+00
 Coeff-Com: -0.666D-03 0.458D-02 0.707D-02 0.447D-01 0.372D+00 0.572D+00
 Coeff:     -0.666D-03 0.458D-02 0.707D-02 0.447D-01 0.372D+00 0.572D+00
 Gap=     0.194 Goal=   None    Shift=    0.000
 RMSDP=6.46D-09 MaxDP=1.49D-07 DE= 3.41D-13 OVMax= 1.29D-07

 SCF Done:  E(RB3LYP) =  -382.307648313     A.U. after   13 cycles
             Convg  =    0.6460D-08             -V/T =  2.0173
 KE= 3.757962354340D+02 PE=-1.773323523874D+03 EE= 5.708573003059D+02
 Leave Link  502 at Sun Jun 29 23:42:01 2025, MaxMem=   33554432 cpu:       1.5
 (Enter /home/eric/data/opt/apps/gaussian/g09B.01/g09/l701.exe)
 Compute integral first derivatives.
 ... and contract with generalized density number  0.
 Leave Link  701 at Sun Jun 29 23:42:01 2025, MaxMem=   33554432 cpu:       0.0
 (Enter /home/eric/data/opt/apps/gaussian/g09B.01/g09/l702.exe)
 L702 exits ... SP integral derivatives will be done elsewhere.
 Leave Link  702 at Sun Jun 29 23:42:01 2025, MaxMem=   33554432 cpu:       0.0
 (Enter /home/eric/data/opt/apps/gaussian/g09B.01/g09/l703.exe)
 Compute integral first derivatives, UseDBF=F ICtDFT=           0.
 Integral derivatives from FoFDir, PRISM(SPDF).
 Calling FoFJK, ICntrl=      2127 FMM=F ISym2X=1 I1Cent= 0 IOpClX= 0 NMat=1 NMatS=1 NMatT=0.
 FoFCou: FMM=F IPFlag=           0 FMFlag=      100000 FMFlg1=         800
         NFxFlg=           0 DoJE=F BraDBF=F KetDBF=F FulRan=T
         Omega=  0.000000  0.000000  1.000000  0.000000  0.000000 ICntrl=    2127 IOpCl=  0
         NMat0=    1 NMatS0=    1 NMatT0=    0 NMatD0=    1 NMtDS0=    0 NMtDT0=    0
         I1Cent=           0 NGrid=           0.
 Petite list used in FoFCou.
 Leave Link  703 at Sun Jun 29 23:42:01 2025, MaxMem=   33554432 cpu:       0.4
 (Enter /home/eric/data/opt/apps/gaussian/g09B.01/g09/l716.exe)
 Dipole        =-8.88178420D-16-9.76996262D-15 0.00000000D+00
 ***** Axes restored to original set *****
 -------------------------------------------------------------------
 Center     Atomic                   Forces (Hartrees/Bohr)
 Number     Number              X              Y              Z
 -------------------------------------------------------------------
      1        6          -0.000092862   -0.009422505    0.000000000
      2        6          -0.002922970    0.006638815    0.000000000
      3        6          -0.002727058   -0.006544501    0.000000000
      4        6           0.000092862    0.009422505    0.000000000
      5        6           0.002922970   -0.006638815    0.000000000
      6        6           0.002727058    0.006544501    0.000000000
      7        1           0.000552513   -0.000140642    0.000000000
      8        1           0.001482558    0.002281942    0.000000000
      9        1          -0.000552513    0.000140642    0.000000000
     10        1          -0.001482558   -0.002281942    0.000000000
     11        6           0.002790502   -0.009858057    0.000000000
     12        6          -0.000650445    0.000577179    0.000000000
     13        1          -0.000279625    0.001613192    0.000000000
     14        1          -0.001625961   -0.000642499    0.000000000
     15        1           0.001635607   -0.001902859    0.000000000
     16        6          -0.002790502    0.009858057    0.000000000
     17        6           0.000650445   -0.000577179    0.000000000
     18        1           0.000279625   -0.001613192    0.000000000
     19        1           0.001625961    0.000642499    0.000000000
     20        1          -0.001635607    0.001902859    0.000000000
 -------------------------------------------------------------------
 Cartesian Forces:  Max     0.009858057 RMS     0.003251487
 Leave Link  716 at Sun Jun 29 23:42:01 2025, MaxMem=   33554432 cpu:       0.0
 (Enter /home/eric/data/opt/apps/gaussian/g09B.01/g09/l103.exe)

 GradGradGradGradGradGradGradGradGradGradGradGradGradGradGradGradGradGrad
 Berny optimization.
 Using GEDIIS/GDIIS optimizer.
 Internal  Forces:  Max     0.010379054 RMS     0.002107307
 Search for a local minimum.
 Step number   2 out of a maximum of  100
 All quantities printed in internal units (Hartrees-Bohrs-Radians)
 RMS Force = .21073D-02 SwitMx=.10000D-02 MixMth= 1
[...]
 ! D29   D(4,5,6,1)              0.0            -DE/DX =    0.0                 !
 ! D30   D(4,5,6,10)           180.0            -DE/DX =    0.0                 !
 ! D31   D(9,5,6,1)            180.0            -DE/DX =    0.0                 !
 ! D32   D(9,5,6,10)             0.0            -DE/DX =    0.0                 !
 ! D33   D(4,11,12,14)         180.0            -DE/DX =    0.0                 !
 ! D34   D(4,11,12,15)           0.0            -DE/DX =    0.0                 !
 ! D35   D(13,11,12,14)          0.0            -DE/DX =    0.0                 !
 ! D36   D(13,11,12,15)        180.0            -DE/DX =    0.0                 !
 ! D37   D(1,16,17,19)         180.0            -DE/DX =    0.0                 !
 ! D38   D(1,16,17,20)           0.0            -DE/DX =    0.0                 !
 ! D39   D(18,16,17,19)          0.0            -DE/DX =    0.0                 !
 ! D40   D(18,16,17,20)        180.0            -DE/DX =    0.0                 !
 --------------------------------------------------------------------------------
 GradGradGradGradGradGradGradGradGradGradGradGradGradGradGradGradGradGrad

 Largest change from initial coordinates is atom   19       0.294 Angstoms.
 Leave Link  103 at Sun Jun 29 23:42:08 2025, MaxMem=   33554432 cpu:       0.0
 (Enter /home/eric/data/opt/apps/gaussian/g09B.01/g09/l202.exe)
                          Input orientation:                          
 ---------------------------------------------------------------------
 Center     Atomic      Atomic             Coordinates (Angstroms)
 Number     Number       Type             X           Y           Z
 ---------------------------------------------------------------------
      1          6           0        0.239920   -1.415493    0.000000
      2          6           0        1.315584   -0.484736    0.000000
      3          6           0        1.083791    0.898115    0.000000
      4          6           0       -0.239920    1.415493    0.000000
      5          6           0       -1.315584    0.484736    0.000000
      6          6           0       -1.083791   -0.898115    0.000000
      7          1           0        2.347285   -0.862366    0.000000
      8          1           0        1.938070    1.587234    0.000000
      9          1           0       -2.347285    0.862366    0.000000
     10          1           0       -1.938070   -1.587234    0.000000
     11          6           0       -0.543353    2.881997    0.000000
     12          6           0        0.351416    3.885297    0.000000
     13          1           0       -1.616625    3.124973    0.000000
     14          1           0        0.030081    4.933358    0.000000
     15          1           0        1.433629    3.712153    0.000000
     16          6           0        0.543353   -2.881997    0.000000
     17          6           0       -0.351416   -3.885297    0.000000
     18          1           0        1.616625   -3.124973    0.000000
     19          1           0       -0.030081   -4.933358    0.000000
     20          1           0       -1.433629   -3.712153    0.000000
 ---------------------------------------------------------------------
                    Distance matrix (angstroms):
                    1          2          3          4          5
     1  C    0.000000
     2  C    1.422449   0.000000
     3  C    2.462702   1.402143   0.000000
     4  C    2.871364   2.455700   1.421229   0.000000
     5  C    2.455700   2.804089   2.434724   1.422449   0.000000
     6  C    1.421229   2.434724   2.815111   2.462702   1.402143
     7  H    2.178746   1.098641   2.166959   3.447067   3.902728
     8  H    3.449650   2.163457   1.097578   2.184751   3.435370
     9  H    3.447067   3.902728   3.431261   2.178746   1.098641
    10  H    2.184751   3.435370   3.912621   3.449650   2.163457
    11  C    4.368288   3.845846   2.565810   1.497566   2.518571
    12  C    5.301963   4.475131   3.075650   2.539608   3.787177
    13  H    4.905364   4.650574   3.500162   2.194911   2.657344
    14  H    6.352318   5.568506   4.170550   3.528211   4.647693
    15  H    5.264760   4.198548   2.835700   2.841727   4.239622
    16  C    1.497566   2.518571   3.818549   4.368288   3.845846
    17  C    2.539608   3.787177   4.994081   5.301963   4.475131
    18  H    2.194911   2.657344   4.058220   4.905364   4.650574
    19  H    3.528211   4.647693   5.936901   6.352318   5.568506
    20  H    2.841727   4.239622   5.252806   5.264760   4.198548
                    6          7          8          9         10
     6  C    0.000000
     7  H    3.431261   0.000000
     8  H    3.912621   2.483545   0.000000
     9  H    2.166959   5.001368   4.346228   0.000000
    10  H    1.097578   4.346228   5.010160   2.483545   0.000000
    11  C    3.818549   4.730331   2.798905   2.707965   4.681801
    12  C    4.994081   5.150125   2.792590   4.052296   5.932145
    13  H    4.058220   5.622406   3.873047   2.377657   4.723158
    14  H    5.936901   6.241782   3.851878   4.714323   6.811148
    15  H    5.252806   4.664867   2.183973   4.734616   6.281071
    16  C    2.565810   2.707965   4.681801   4.730331   2.798905
    17  C    3.075650   4.052296   5.932145   5.150125   2.792590
    18  H    3.500162   2.377657   4.723158   5.622406   3.873047
    19  H    4.170550   4.714323   6.811148   6.241782   3.851878
    20  H    2.835700   4.734616   6.281071   4.664867   2.183973
                   11         12         13         14         15
    11  C    0.000000
    12  C    1.344330   0.000000
    13  H    1.100431   2.109805   0.000000
    14  H    2.130002   1.096216   2.445791   0.000000
    15  H    2.144206   1.095976   3.106256   1.860454   0.000000
    16  C    5.865539   6.770015   6.383509   7.832191   6.653976
    17  C    6.770015   7.802314   7.123527   8.826903   7.804334
    18  H    6.383509   7.123527   7.036741   8.213027   6.839574
    19  H    7.832191   8.826903   8.213027   9.866899   8.768540
    20  H    6.653976   7.804334   6.839574   8.768540   7.958736
                   16         17         18         19         20
    16  C    0.000000
    17  C    1.344330   0.000000
    18  H    1.100431   2.109805   0.000000
    19  H    2.130002   1.096216   2.445791   0.000000
    20  H    2.144206   1.095976   3.106256   1.860454   0.000000
 Stoichiometry    C10H10
 Framework group  C2H[SGH(C10H10)]
 Deg. of freedom    19
 Full point group                 C2H     NOp   4
 Largest Abelian subgroup         C2H     NOp   4
 Largest concise Abelian subgroup C2      NOp   2
                         Standard orientation:                         
 ---------------------------------------------------------------------
 Center     Atomic      Atomic             Coordinates (Angstroms)
 Number     Number       Type             X           Y           Z
 ---------------------------------------------------------------------
      1          6           0        1.231030    0.738749    0.000000
      2          6           0       -0.027444    1.401776    0.000000
      3          6           0       -1.231030    0.682480    0.000000
      4          6           0       -1.231030   -0.738749    0.000000
      5          6           0        0.027444   -1.401776    0.000000
      6          6           0        1.231030   -0.682480    0.000000
      7          1           0       -0.051301    2.500158    0.000000
      8          1           0       -2.183853    1.227279    0.000000
      9          1           0        0.051301   -2.500158    0.000000
     10          1           0        2.183853   -1.227279    0.000000
     11          6           0       -2.486448   -1.555221    0.000000
     12          6           0       -3.746635   -1.087083    0.000000
     13          1           0       -2.322043   -2.643302    0.000000
     14          1           0       -4.605806   -1.767902    0.000000
     15          1           0       -3.979335   -0.016096    0.000000
     16          6           0        2.486448    1.555221    0.000000
     17          6           0        3.746635    1.087083    0.000000
     18          1           0        2.322043    2.643302    0.000000
     19          1           0        4.605806    1.767902    0.000000
     20          1           0        3.979335    0.016096    0.000000
 ---------------------------------------------------------------------
 Rotational constants (GHZ):      4.6262016      0.6849636      0.5966261
 Leave Link  202 at Sun Jun 29 23:42:08 2025, MaxMem=   33554432 cpu:       0.0
 (Enter /home/eric/data/opt/apps/gaussian/g09B.01/g09/l601.exe)
 Copying SCF densities to generalized density rwf, IOpCl= 0 IROHF=0.

 **********************************************************************

            Population analysis using the SCF density.

 **********************************************************************

 Orbital symmetries:
       Occupied  (BU) (AG) (BU) (AG) (BU) (AG) (BU) (AG) (BU) (AG)
                 (AG) (BU) (AG) (BU) (BU) (AG) (AG) (BU) (AG) (AG)
                 (BU) (BU) (BU) (AG) (BU) (BU) (AG) (AU) (BU) (AG)
                 (AG) (BG) (AU) (BG) (BG)
       Virtual   (AU) (AU) (BG) (AU) (BG) (AG) (BU) (BU) (AG) (AG)
                 (BU) (BU) (AG) (BU) (AG) (AG) (BU) (AG) (BU) (BU)
                 (AG) (AG) (BU) (AG) (BU)
 The electronic state is 1-AG.
 Alpha  occ. eigenvalues --  -10.02021 -10.02016 -10.00812 -10.00811 -10.00678
 Alpha  occ. eigenvalues --  -10.00678 -10.00605 -10.00591  -9.99233  -9.99233
 Alpha  occ. eigenvalues --   -0.80950  -0.75398  -0.71796  -0.69978  -0.66749
 Alpha  occ. eigenvalues --   -0.58869  -0.55891  -0.53167  -0.51017  -0.45745
 Alpha  occ. eigenvalues --   -0.43936  -0.41060  -0.39795  -0.39606  -0.37396
 Alpha  occ. eigenvalues --   -0.35113  -0.34730  -0.32450  -0.31127  -0.29280
 Alpha  occ. eigenvalues --   -0.28745  -0.26354  -0.21244  -0.19505  -0.15306
 Alpha virt. eigenvalues --    0.03740   0.09038   0.11060   0.18219   0.27252
 Alpha virt. eigenvalues --    0.33229   0.34075   0.37941   0.38144   0.41094
 Alpha virt. eigenvalues --    0.41193   0.42673   0.43962   0.45280   0.47829
 Alpha virt. eigenvalues --    0.52624   0.54580   0.57602   0.59947   0.62497
 Alpha virt. eigenvalues --    0.63974   0.68275   0.71718   0.77951   0.79457
          Condensed to atoms (all electrons):
              1          2          3          4          5          6
     1  C    4.778696   0.488791  -0.026982  -0.009772  -0.027142   0.488299
     2  C    0.488791   4.815046   0.508973  -0.027142  -0.011064  -0.030715
     3  C   -0.026982   0.508973   4.810718   0.488299  -0.030715  -0.010508
     4  C   -0.009772  -0.027142   0.488299   4.778696   0.488791  -0.026982
     5  C   -0.027142  -0.011064  -0.030715   0.488791   4.815046   0.508973
     6  C    0.488299  -0.030715  -0.010508  -0.026982   0.508973   4.810718
     7  H   -0.025298   0.387929  -0.025214   0.001335   0.000039   0.001342
     8  H    0.001331  -0.025277   0.387888  -0.024565   0.001347   0.000032
     9  H    0.001335   0.000039   0.001342  -0.025298   0.387929  -0.025214
    10  H   -0.024565   0.001347   0.000032   0.001331  -0.025277   0.387888
    11  C    0.000016   0.000749  -0.024069   0.411876  -0.028759   0.000818
    12  C    0.000000   0.000015  -0.003973  -0.023801   0.000680  -0.000007
    13  H   -0.000001  -0.000017   0.001086  -0.026061  -0.003958   0.000022
    14  H    0.000000   0.000000   0.000018   0.001320  -0.000016   0.000000
    15  H    0.000000  -0.000012  -0.000565  -0.003535   0.000013   0.000000
    16  C    0.411876  -0.028759   0.000818   0.000016   0.000749  -0.024069
    17  C   -0.023801   0.000680  -0.000007   0.000000   0.000015  -0.003973
    18  H   -0.026061  -0.003958   0.000022  -0.000001  -0.000017   0.001086
    19  H    0.001320  -0.000016   0.000000   0.000000   0.000000   0.000018
    20  H   -0.003535   0.000013   0.000000   0.000000  -0.000012  -0.000565
              7          8          9         10         11         12
     1  C   -0.025298   0.001331   0.001335  -0.024565   0.000016   0.000000
     2  C    0.387929  -0.025277   0.000039   0.001347   0.000749   0.000015
     3  C   -0.025214   0.387888   0.001342   0.000032  -0.024069  -0.003973
     4  C    0.001335  -0.024565  -0.025298   0.001331   0.411876  -0.023801
     5  C    0.000039   0.001347   0.387929  -0.025277  -0.028759   0.000680
     6  C    0.001342   0.000032  -0.025214   0.387888   0.000818  -0.000007
     7  H    0.588883  -0.003828   0.000002  -0.000034  -0.000014   0.000000
     8  H   -0.003828   0.586991  -0.000034   0.000002  -0.003040  -0.000610
     9  H    0.000002  -0.000034   0.588883  -0.003828  -0.003900   0.000029
    10  H   -0.000034   0.000002  -0.003828   0.586991  -0.000015   0.000000
    11  C   -0.000014  -0.003040  -0.003900  -0.000015   4.798270   0.586062
    12  C    0.000000  -0.000610   0.000029   0.000000   0.586062   4.849846
    13  H    0.000000   0.000019   0.001032  -0.000002   0.386250  -0.027656
    14  H    0.000000  -0.000017  -0.000002   0.000000  -0.024045   0.388268
    15  H    0.000002   0.000563   0.000001   0.000000  -0.023820   0.385957
    16  C   -0.003900  -0.000015  -0.000014  -0.003040   0.000000   0.000000
    17  C    0.000029   0.000000   0.000000  -0.000610   0.000000   0.000000
    18  H    0.001032  -0.000002   0.000000   0.000019   0.000000   0.000000
    19  H   -0.000002   0.000000   0.000000  -0.000017   0.000000   0.000000
    20  H    0.000001   0.000000   0.000002   0.000563   0.000000   0.000000
             13         14         15         16         17         18
     1  C   -0.000001   0.000000   0.000000   0.411876  -0.023801  -0.026061
     2  C   -0.000017   0.000000  -0.000012  -0.028759   0.000680  -0.003958
     3  C    0.001086   0.000018  -0.000565   0.000818  -0.000007   0.000022
     4  C   -0.026061   0.001320  -0.003535   0.000016   0.000000  -0.000001
     5  C   -0.003958  -0.000016   0.000013   0.000749   0.000015  -0.000017
     6  C    0.000022   0.000000   0.000000  -0.024069  -0.003973   0.001086
     7  H    0.000000   0.000000   0.000002  -0.003900   0.000029   0.001032
     8  H    0.000019  -0.000017   0.000563  -0.000015   0.000000  -0.000002
     9  H    0.001032  -0.000002   0.000001  -0.000014   0.000000   0.000000
    10  H   -0.000002   0.000000   0.000000  -0.003040  -0.000610   0.000019
    11  C    0.386250  -0.024045  -0.023820   0.000000   0.000000   0.000000
    12  C   -0.027656   0.388268   0.385957   0.000000   0.000000   0.000000
    13  H    0.595442  -0.005088   0.002044   0.000000   0.000000   0.000000
    14  H   -0.005088   0.583934  -0.023721   0.000000   0.000000   0.000000
    15  H    0.002044  -0.023721   0.586740   0.000000   0.000000   0.000000
    16  C    0.000000   0.000000   0.000000   4.798270   0.586062   0.386250
    17  C    0.000000   0.000000   0.000000   0.586062   4.849846  -0.027656
    18  H    0.000000   0.000000   0.000000   0.386250  -0.027656   0.595442
    19  H    0.000000   0.000000   0.000000  -0.024045   0.388268  -0.005088
    20  H    0.000000   0.000000   0.000000  -0.023820   0.385957   0.002044
             19         20
     1  C    0.001320  -0.003535
     2  C   -0.000016   0.000013
     3  C    0.000000   0.000000
     4  C    0.000000   0.000000
     5  C    0.000000  -0.000012
     6  C    0.000018  -0.000565
     7  H   -0.000002   0.000001
     8  H    0.000000   0.000000
     9  H    0.000000   0.000002
    10  H   -0.000017   0.000563
    11  C    0.000000   0.000000
    12  C    0.000000   0.000000
    13  H    0.000000   0.000000
    14  H    0.000000   0.000000
    15  H    0.000000   0.000000
    16  C   -0.024045  -0.023820
    17  C    0.388268   0.385957
    18  H   -0.005088   0.002044
    19  H    0.583934  -0.023721
    20  H   -0.023721   0.586740
 Mulliken atomic charges:
              1
     1  C   -0.004506
     2  C   -0.076621
     3  C   -0.077162
     4  C   -0.004506
     5  C   -0.076621
     6  C   -0.077162
     7  H    0.077694
     8  H    0.079214
     9  H    0.077694
    10  H    0.079214
    11  C   -0.076379
    12  C   -0.154811
    13  H    0.076888
    14  H    0.079348
    15  H    0.076334
    16  C   -0.076379
    17  C   -0.154811
    18  H    0.076888
    19  H    0.079348
    20  H    0.076334
 Sum of Mulliken atomic charges =   0.00000
 Mulliken charges with hydrogens summed into heavy atoms:
              1
     1  C   -0.004506
     2  C    0.001073
     3  C    0.002052
     4  C   -0.004506
     5  C    0.001073
     6  C    0.002052
    11  C    0.000509
    12  C    0.000871
    16  C    0.000509
    17  C    0.000871
 Sum of Mulliken charges with hydrogens summed into heavy atoms =   0.00000
 Electronic spatial extent (au):  <R**2>=           1861.6808
 Charge=              0.0000 electrons
 Dipole moment (field-independent basis, Debye):
    X=              0.0000    Y=              0.0000    Z=              0.0000  Tot=              0.0000
 Quadrupole moment (field-independent basis, Debye-Ang):
   XX=            -50.6963   YY=            -50.2415   ZZ=            -58.6254
   XY=             -0.1142   XZ=              0.0000   YZ=              0.0000
 Traceless Quadrupole moment (field-independent basis, Debye-Ang):
   XX=              2.4914   YY=              2.9462   ZZ=             -5.4377
   XY=             -0.1142   XZ=              0.0000   YZ=              0.0000
 Octapole moment (field-independent basis, Debye-Ang**2):
  XXX=              0.0000  YYY=              0.0000  ZZZ=              0.0000  XYY=              0.0000
  XXY=              0.0000  XXZ=              0.0000  XZZ=              0.0000  YZZ=              0.0000
  YYZ=              0.0000  XYZ=              0.0000
 Hexadecapole moment (field-independent basis, Debye-Ang**3):
 XXXX=          -1670.4516 YYYY=           -530.2326 ZZZZ=            -47.6115 XXXY=           -253.7249
 XXXZ=              0.0000 YYYX=           -258.1932 YYYZ=              0.0000 ZZZX=              0.0000
 ZZZY=              0.0000 XXYY=           -363.3881 XXZZ=           -328.7379 YYZZ=           -111.0426
 XXYZ=              0.0000 YYXZ=              0.0000 ZZXY=            -99.9009
 N-N= 4.458997914766D+02 E-N=-1.776415703275D+03  KE= 3.758472184494D+02
 Symmetry AG   KE= 1.814053963306D+02
 Symmetry BG   KE= 7.823317985513D+00
 Symmetry AU   KE= 4.696971413879D+00
 Symmetry BU   KE= 1.819215327195D+02
 No NMR shielding tensors so no spin-rotation constants.
 Leave Link  601 at Sun Jun 29 23:42:08 2025, MaxMem=   33554432 cpu:       0.0
 (Enter /home/eric/data/opt/apps/gaussian/g09B.01/g09/l9999.exe)
 1\1\GINC-OSMIUM\FOpt\RB3LYP\STO-3G\C10H10\ERIC\29-Jun-2025\0\\#p b3lyp
 /sto-3g opt\\dvb\\0,1\C,0.2399204875,-1.4154933658,0.\C,1.3155838152,-
 0.4847355336,0.\C,1.0837905448,0.8981152709,0.\C,-0.2399204875,1.41549
 33658,0.\C,-1.3155838152,0.4847355336,0.\C,-1.0837905448,-0.8981152709
 ,0.\H,2.3472846058,-0.8623657349,0.\H,1.9380697498,1.5872342005,0.\H,-
 2.3472846058,0.8623657349,0.\H,-1.9380697498,-1.5872342005,0.\C,-0.543
 3532203,2.8819965098,0.\C,0.3514164515,3.8852967859,0.\H,-1.6166245857
 ,3.1249727158,0.\H,0.0300807352,4.9333578978,0.\H,1.4336288678,3.71215
 26903,0.\C,0.5433532203,-2.8819965098,0.\C,-0.3514164515,-3.8852967859
 ,0.\H,1.6166245857,-3.1249727158,0.\H,-0.0300807352,-4.9333578978,0.\H
 ,-1.4336288678,-3.7121526903,0.\\Version=EM64L-G09RevB.01\State=1-AG\H
 F=-382.308269\RMSD=2.809e-09\RMSF=1.674e-05\Dipole=0.,0.,0.\Quadrupole
 =2.2032039,1.8395741,-4.0427779,-0.0522628,0.,0.\PG=C02H [SGH(C10H10)]
 \\@


 DO NOT LET SELFISH MEN OR GREEDY INTERESTS SKIN YOUR COUNTRY OF ITS
 BEAUTY, ITS RICHES, OR ITS ROMANCE. -- THEODORE ROOSEVELT
 Job cpu time:  0 days  0 hours  0 minutes 11.5 seconds.
 File lengths (MBytes):  RWF=      9 Int=      0 D2E=      0 Chk=      2 Scr=      1
 Normal termination of Gaussian 09 at Sun Jun 29 23:42:08 2025.
