dvb                                                                     
FOpt      RB3LYP                                                      STO-3G              
Number of atoms                            I               20
Info1-9                                    I   N=           9
          27          27           0           0           0         110
           2          18        -502
Charge                                     I                0
Multiplicity                               I                1
Number of electrons                        I               70
Number of alpha electrons                  I               35
Number of beta electrons                   I               35
Number of basis functions                  I               60
Number of independent functions            I               60
Number of point charges in /Mol/           I                0
Number of translation vectors              I                0
Atomic numbers                             I   N=          20
           6           6           6           6           6           6
           1           1           1           1           6           6
           1           1           1           6           6           1
           1           1
Nuclear charges                            R   N=          20
  6.00000000E+00  6.00000000E+00  6.00000000E+00  6.00000000E+00  6.00000000E+00
  6.00000000E+00  1.00000000E+00  1.00000000E+00  1.00000000E+00  1.00000000E+00
  6.00000000E+00  6.00000000E+00  1.00000000E+00  1.00000000E+00  1.00000000E+00
  6.00000000E+00  6.00000000E+00  1.00000000E+00  1.00000000E+00  1.00000000E+00
Current cartesian coordinates              R   N=          60
  2.32630880E+00  1.39603247E+00  0.00000000E+00 -5.18620084E-02  2.64897286E+00
  0.00000000E+00 -2.32630880E+00  1.28970053E+00  0.00000000E+00 -2.32630880E+00
 -1.39603247E+00  0.00000000E+00  5.18620084E-02 -2.64897286E+00  0.00000000E+00
  2.32630880E+00 -1.28970053E+00  0.00000000E+00 -9.69450360E-02  4.72461310E+00
  0.00000000E+00 -4.12688371E+00  2.31922117E+00  0.00000000E+00  9.69450360E-02
 -4.72461310E+00  0.00000000E+00  4.12688371E+00 -2.31922117E+00  0.00000000E+00
 -4.69870614E+00 -2.93894151E+00  0.00000000E+00 -7.08011439E+00 -2.05428924E+00
  0.00000000E+00 -4.38802611E+00 -4.99511632E+00  0.00000000E+00 -8.70371164E+00
 -3.34085070E+00  0.00000000E+00 -7.51985410E+00 -3.04170865E-02  0.00000000E+00
  4.69870614E+00  2.93894151E+00  0.00000000E+00  7.08011439E+00  2.05428924E+00
  0.00000000E+00  4.38802611E+00  4.99511632E+00  0.00000000E+00  8.70371164E+00
  3.34085070E+00  0.00000000E+00  7.51985410E+00  3.04170865E-02  0.00000000E+00
Force Field                                I                0
Int Atom Types                             I   N=          20
           0           0           0           0           0           0
           0           0           0           0           0           0
           0           0           0           0           0           0
           0           0
MM charges                                 R   N=          20
  0.00000000E+00  0.00000000E+00  0.00000000E+00  0.00000000E+00  0.00000000E+00
  0.00000000E+00  0.00000000E+00  0.00000000E+00  0.00000000E+00  0.00000000E+00
  0.00000000E+00  0.00000000E+00  0.00000000E+00  0.00000000E+00  0.00000000E+00
  0.00000000E+00  0.00000000E+00  0.00000000E+00  0.00000000E+00  0.00000000E+00
Integer atomic weights                     I   N=          20
          12          12          12          12          12          12
           1           1           1           1          12          12
           1           1           1          12          12           1
           1           1
Real atomic weights                        R   N=          20
  1.20000000E+01  1.20000000E+01  1.20000000E+01  1.20000000E+01  1.20000000E+01
  1.20000000E+01  1.00782504E+00  1.00782504E+00  1.00782504E+00  1.00782504E+00
  1.20000000E+01  1.20000000E+01  1.00782504E+00  1.00782504E+00  1.00782504E+00
  1.20000000E+01  1.20000000E+01  1.00782504E+00  1.00782504E+00  1.00782504E+00
Atom fragment info                         I   N=          20
           0           0           0           0           0           0
           0           0           0           0           0           0
           0           0           0           0           0           0
           0           0
Atom residue num                           I   N=          20
           0           0           0           0           0           0
           0           0           0           0           0           0
           0           0           0           0           0           0
           0           0
Nuclear spins                              I   N=          20
           0           0           0           0           0           0
           1           1           1           1           0           0
           1           1           1           0           0           1
           1           1
Nuclear ZEff                               R   N=          20
 -3.60000000E+00 -3.60000000E+00 -3.60000000E+00 -3.60000000E+00 -3.60000000E+00
 -3.60000000E+00 -1.00000000E+00 -1.00000000E+00 -1.00000000E+00 -1.00000000E+00
 -3.60000000E+00 -3.60000000E+00 -1.00000000E+00 -1.00000000E+00 -1.00000000E+00
 -3.60000000E+00 -3.60000000E+00 -1.00000000E+00 -1.00000000E+00 -1.00000000E+00
Nuclear QMom                               R   N=          20
  0.00000000E+00  0.00000000E+00  0.00000000E+00  0.00000000E+00  0.00000000E+00
  0.00000000E+00  0.00000000E+00  0.00000000E+00  0.00000000E+00  0.00000000E+00
  0.00000000E+00  0.00000000E+00  0.00000000E+00  0.00000000E+00  0.00000000E+00
  0.00000000E+00  0.00000000E+00  0.00000000E+00  0.00000000E+00  0.00000000E+00
Nuclear GFac                               R   N=          20
  0.00000000E+00  0.00000000E+00  0.00000000E+00  0.00000000E+00  0.00000000E+00
  0.00000000E+00  2.79284600E+00  2.79284600E+00  2.79284600E+00  2.79284600E+00
  0.00000000E+00  0.00000000E+00  2.79284600E+00  2.79284600E+00  2.79284600E+00
  0.00000000E+00  0.00000000E+00  2.79284600E+00  2.79284600E+00  2.79284600E+00
MicOpt                                     I   N=          20
          -1          -1          -1          -1          -1          -1
          -1          -1          -1          -1          -1          -1
          -1          -1          -1          -1          -1          -1
          -1          -1
Number of contracted shells                I               30
Number of primitive shells                 I               90
Pure/Cartesian d shells                    I                0
Pure/Cartesian f shells                    I                0
Highest angular momentum                   I                1
Largest degree of contraction              I                3
Shell types                                I   N=          30
           0          -1           0          -1           0          -1
           0          -1           0          -1           0          -1
           0           0           0           0           0          -1
           0          -1           0           0           0           0
          -1           0          -1           0           0           0
Number of primitives per shell             I   N=          30
           3           3           3           3           3           3
           3           3           3           3           3           3
           3           3           3           3           3           3
           3           3           3           3           3           3
           3           3           3           3           3           3
Shell to atom map                          I   N=          30
           1           1           2           2           3           3
           4           4           5           5           6           6
           7           8           9          10          11          11
          12          12          13          14          15          16
          16          17          17          18          19          20
Primitive exponents                        R   N=          90
  7.16168373E+01  1.30450963E+01  3.53051216E+00  2.94124936E+00  6.83483096E-01
  2.22289916E-01  7.16168373E+01  1.30450963E+01  3.53051216E+00  2.94124936E+00
  6.83483096E-01  2.22289916E-01  7.16168373E+01  1.30450963E+01  3.53051216E+00
  2.94124936E+00  6.83483096E-01  2.22289916E-01  7.16168373E+01  1.30450963E+01
  3.53051216E+00  2.94124936E+00  6.83483096E-01  2.22289916E-01  7.16168373E+01
  1.30450963E+01  3.53051216E+00  2.94124936E+00  6.83483096E-01  2.22289916E-01
  7.16168373E+01  1.30450963E+01  3.53051216E+00  2.94124936E+00  6.83483096E-01
  2.22289916E-01  3.42525091E+00  6.23913730E-01  1.68855404E-01  3.42525091E+00
  6.23913730E-01  1.68855404E-01  3.42525091E+00  6.23913730E-01  1.68855404E-01
  3.42525091E+00  6.23913730E-01  1.68855404E-01  7.16168373E+01  1.30450963E+01
  3.53051216E+00  2.94124936E+00  6.83483096E-01  2.22289916E-01  7.16168373E+01
  1.30450963E+01  3.53051216E+00  2.94124936E+00  6.83483096E-01  2.22289916E-01
  3.42525091E+00  6.23913730E-01  1.68855404E-01  3.42525091E+00  6.23913730E-01
  1.68855404E-01  3.42525091E+00  6.23913730E-01  1.68855404E-01  7.16168373E+01
  1.30450963E+01  3.53051216E+00  2.94124936E+00  6.83483096E-01  2.22289916E-01
  7.16168373E+01  1.30450963E+01  3.53051216E+00  2.94124936E+00  6.83483096E-01
  2.22289916E-01  3.42525091E+00  6.23913730E-01  1.68855404E-01  3.42525091E+00
  6.23913730E-01  1.68855404E-01  3.42525091E+00  6.23913730E-01  1.68855404E-01
Contraction coefficients                   R   N=          90
  1.54328967E-01  5.35328142E-01  4.44634542E-01 -9.99672292E-02  3.99512826E-01
  7.00115469E-01  1.54328967E-01  5.35328142E-01  4.44634542E-01 -9.99672292E-02
  3.99512826E-01  7.00115469E-01  1.54328967E-01  5.35328142E-01  4.44634542E-01
 -9.99672292E-02  3.99512826E-01  7.00115469E-01  1.54328967E-01  5.35328142E-01
  4.44634542E-01 -9.99672292E-02  3.99512826E-01  7.00115469E-01  1.54328967E-01
  5.35328142E-01  4.44634542E-01 -9.99672292E-02  3.99512826E-01  7.00115469E-01
  1.54328967E-01  5.35328142E-01  4.44634542E-01 -9.99672292E-02  3.99512826E-01
  7.00115469E-01  1.54328967E-01  5.35328142E-01  4.44634542E-01  1.54328967E-01
  5.35328142E-01  4.44634542E-01  1.54328967E-01  5.35328142E-01  4.44634542E-01
  1.54328967E-01  5.35328142E-01  4.44634542E-01  1.54328967E-01  5.35328142E-01
  4.44634542E-01 -9.99672292E-02  3.99512826E-01  7.00115469E-01  1.54328967E-01
  5.35328142E-01  4.44634542E-01 -9.99672292E-02  3.99512826E-01  7.00115469E-01
  1.54328967E-01  5.35328142E-01  4.44634542E-01  1.54328967E-01  5.35328142E-01
  4.44634542E-01  1.54328967E-01  5.35328142E-01  4.44634542E-01  1.54328967E-01
  5.35328142E-01  4.44634542E-01 -9.99672292E-02  3.99512826E-01  7.00115469E-01
  1.54328967E-01  5.35328142E-01  4.44634542E-01 -9.99672292E-02  3.99512826E-01
  7.00115469E-01  1.54328967E-01  5.35328142E-01  4.44634542E-01  1.54328967E-01
  5.35328142E-01  4.44634542E-01  1.54328967E-01  5.35328142E-01  4.44634542E-01
P(S=P) Contraction coefficients            R   N=          90
  0.00000000E+00  0.00000000E+00  0.00000000E+00  1.55916275E-01  6.07683719E-01
  3.91957393E-01  0.00000000E+00  0.00000000E+00  0.00000000E+00  1.55916275E-01
  6.07683719E-01  3.91957393E-01  0.00000000E+00  0.00000000E+00  0.00000000E+00
  1.55916275E-01  6.07683719E-01  3.91957393E-01  0.00000000E+00  0.00000000E+00
  0.00000000E+00  1.55916275E-01  6.07683719E-01  3.91957393E-01  0.00000000E+00
  0.00000000E+00  0.00000000E+00  1.55916275E-01  6.07683719E-01  3.91957393E-01
  0.00000000E+00  0.00000000E+00  0.00000000E+00  1.55916275E-01  6.07683719E-01
  3.91957393E-01  0.00000000E+00  0.00000000E+00  0.00000000E+00  0.00000000E+00
  0.00000000E+00  0.00000000E+00  0.00000000E+00  0.00000000E+00  0.00000000E+00
  0.00000000E+00  0.00000000E+00  0.00000000E+00  0.00000000E+00  0.00000000E+00
  0.00000000E+00  1.55916275E-01  6.07683719E-01  3.91957393E-01  0.00000000E+00
  0.00000000E+00  0.00000000E+00  1.55916275E-01  6.07683719E-01  3.91957393E-01
  0.00000000E+00  0.00000000E+00  0.00000000E+00  0.00000000E+00  0.00000000E+00
  0.00000000E+00  0.00000000E+00  0.00000000E+00  0.00000000E+00  0.00000000E+00
  0.00000000E+00  0.00000000E+00  1.55916275E-01  6.07683719E-01  3.91957393E-01
  0.00000000E+00  0.00000000E+00  0.00000000E+00  1.55916275E-01  6.07683719E-01
  3.91957393E-01  0.00000000E+00  0.00000000E+00  0.00000000E+00  0.00000000E+00
  0.00000000E+00  0.00000000E+00  0.00000000E+00  0.00000000E+00  0.00000000E+00
Coordinates of each shell                  R   N=          90
  2.32630880E+00  1.39603247E+00  0.00000000E+00  2.32630880E+00  1.39603247E+00
  0.00000000E+00 -5.18620084E-02  2.64897286E+00  0.00000000E+00 -5.18620084E-02
  2.64897286E+00  0.00000000E+00 -2.32630880E+00  1.28970053E+00  0.00000000E+00
 -2.32630880E+00  1.28970053E+00  0.00000000E+00 -2.32630880E+00 -1.39603247E+00
  0.00000000E+00 -2.32630880E+00 -1.39603247E+00  0.00000000E+00  5.18620084E-02
 -2.64897286E+00  0.00000000E+00  5.18620084E-02 -2.64897286E+00  0.00000000E+00
  2.32630880E+00 -1.28970053E+00  0.00000000E+00  2.32630880E+00 -1.28970053E+00
  0.00000000E+00 -9.69450360E-02  4.72461310E+00  0.00000000E+00 -4.12688371E+00
  2.31922117E+00  0.00000000E+00  9.69450360E-02 -4.72461310E+00  0.00000000E+00
  4.12688371E+00 -2.31922117E+00  0.00000000E+00 -4.69870614E+00 -2.93894151E+00
  0.00000000E+00 -4.69870614E+00 -2.93894151E+00  0.00000000E+00 -7.08011439E+00
 -2.05428924E+00  0.00000000E+00 -7.08011439E+00 -2.05428924E+00  0.00000000E+00
 -4.38802611E+00 -4.99511632E+00  0.00000000E+00 -8.70371164E+00 -3.34085070E+00
  0.00000000E+00 -7.51985410E+00 -3.04170865E-02  0.00000000E+00  4.69870614E+00
  2.93894151E+00  0.00000000E+00  4.69870614E+00  2.93894151E+00  0.00000000E+00
  7.08011439E+00  2.05428924E+00  0.00000000E+00  7.08011439E+00  2.05428924E+00
  0.00000000E+00  4.38802611E+00  4.99511632E+00  0.00000000E+00  8.70371164E+00
  3.34085070E+00  0.00000000E+00  7.51985410E+00  3.04170865E-02  0.00000000E+00
Constraint Structure                       R   N=          60
  2.28298302E+00  1.31791169E+00  0.00000000E+00 -4.44595553E-04  2.63583936E+00
  0.00000000E+00 -2.28298302E+00  1.31806449E+00  0.00000000E+00 -2.28298302E+00
 -1.31791169E+00  0.00000000E+00  4.44595553E-04 -2.63583936E+00  0.00000000E+00
  2.28298302E+00 -1.31806449E+00  0.00000000E+00 -2.76116384E-05  4.71388636E+00
  0.00000000E+00 -4.08288060E+00  2.35673896E+00  0.00000000E+00  2.76116384E-05
 -4.71388636E+00  0.00000000E+00  4.08288060E+00 -2.35673896E+00  0.00000000E+00
 -4.80339994E+00 -2.77338565E+00  0.00000000E+00 -7.02997500E+00 -1.62426238E+00
  0.00000000E+00 -4.60736604E+00 -4.83952311E+00  0.00000000E+00 -8.82759657E+00
 -2.66153613E+00  0.00000000E+00 -7.22600891E+00  4.41875102E-01  0.00000000E+00
  4.80339994E+00  2.77338565E+00  0.00000000E+00  7.02997500E+00  1.62426238E+00
  0.00000000E+00  4.60736604E+00  4.83952311E+00  0.00000000E+00  8.82759657E+00
  2.66153613E+00  0.00000000E+00  7.22600891E+00 -4.41875102E-01  0.00000000E+00
Num ILSW                                   I              100
ILSW                                       I   N=         100
           0           0           0           0           2           0
           0           0           0           0         402          -1
           0           0           0           0           0           0
           0           0           0           0           1           0
           1           0           0           0           0           0
           0           0      100000           0          -1           0
           0           0           0           0           0           0
           0           0           0           1           0           0
           0           0           1           0           0           0
           0           0           4          40           0           0
           0           0           5           0           0           0
           0           0           0           0           0           0
           0           0           0           0           0           0
           0           0           0           0           0           0
           0           0           0           0           0           0
           0           0           0           0           0           0
           0           0           0           0
Num RLSW                                   I               40
RLSW                                       R   N=          40
  8.00000000E-01  7.20000000E-01  1.00000000E+00  8.10000000E-01  2.00000000E-01
  0.00000000E+00  0.00000000E+00  1.00000000E+00  0.00000000E+00  0.00000000E+00
  0.00000000E+00  0.00000000E+00  1.00000000E+00  0.00000000E+00  0.00000000E+00
  0.00000000E+00  0.00000000E+00  1.00000000E+00  0.00000000E+00  0.00000000E+00
  0.00000000E+00  0.00000000E+00  1.00000000E+00  0.00000000E+00  0.00000000E+00
  0.00000000E+00  0.00000000E+00  1.00000000E+00  0.00000000E+00  0.00000000E+00
  0.00000000E+00  0.00000000E+00  1.00000000E+00  0.00000000E+00  0.00000000E+00
  0.00000000E+00  0.00000000E+00  0.00000000E+00  1.00000000E+00  1.00000000E+00
MxBond                                     I                3
NBond                                      I   N=          20
           3           3           3           3           3           3
           1           1           1           1           3           3
           1           1           1           3           3           1
           1           1
IBond                                      I   N=          60
           2           6          16           1           3           7
           2           4           8           3           5          11
           4           6           9           1           5          10
           2           0           0           3           0           0
           5           0           0           6           0           0
           4          12          13          11          14          15
          11           0           0          12           0           0
          12           0           0           1          17          18
          16          19          20          16           0           0
          17           0           0          17           0           0
RBond                                      R   N=          60
  1.50000000E+00  1.50000000E+00  1.00000000E+00  1.50000000E+00  1.50000000E+00
  1.00000000E+00  1.50000000E+00  1.50000000E+00  1.00000000E+00  1.50000000E+00
  1.50000000E+00  1.00000000E+00  1.50000000E+00  1.50000000E+00  1.00000000E+00
  1.50000000E+00  1.50000000E+00  1.00000000E+00  1.00000000E+00  0.00000000E+00
  0.00000000E+00  1.00000000E+00  0.00000000E+00  0.00000000E+00  1.00000000E+00
  0.00000000E+00  0.00000000E+00  1.00000000E+00  0.00000000E+00  0.00000000E+00
  1.00000000E+00  2.00000000E+00  1.00000000E+00  2.00000000E+00  1.00000000E+00
  1.00000000E+00  1.00000000E+00  0.00000000E+00  0.00000000E+00  1.00000000E+00
  0.00000000E+00  0.00000000E+00  1.00000000E+00  0.00000000E+00  0.00000000E+00
  1.00000000E+00  2.00000000E+00  1.00000000E+00  2.00000000E+00  1.00000000E+00
  1.00000000E+00  1.00000000E+00  0.00000000E+00  0.00000000E+00  1.00000000E+00
  0.00000000E+00  0.00000000E+00  1.00000000E+00  0.00000000E+00  0.00000000E+00
Virial Ratio                               R      2.017190630221144E+00
SCF Energy                                 R     -3.823082690014207E+02
Total Energy                               R     -3.823082690014207E+02
RMS Force                                  R      1.674204034929599E-05
RMS Density                                R      2.808821522978436E-09
External E-field                           R   N=          35
  0.00000000E+00  0.00000000E+00  0.00000000E+00  0.00000000E+00  0.00000000E+00
  0.00000000E+00  0.00000000E+00  0.00000000E+00  0.00000000E+00  0.00000000E+00
  0.00000000E+00  0.00000000E+00  0.00000000E+00  0.00000000E+00  0.00000000E+00
  0.00000000E+00  0.00000000E+00  0.00000000E+00  0.00000000E+00  0.00000000E+00
  0.00000000E+00  0.00000000E+00  0.00000000E+00  0.00000000E+00  0.00000000E+00
  0.00000000E+00  0.00000000E+00  0.00000000E+00  0.00000000E+00  0.00000000E+00
  0.00000000E+00  0.00000000E+00  0.00000000E+00  0.00000000E+00  0.00000000E+00
IOpCl                                      I                0
IROHF                                      I                0
Alpha Orbital Energies                     R   N=          60
 -1.00202123E+01 -1.00201649E+01 -1.00081158E+01 -1.00081148E+01 -1.00067796E+01
 -1.00067755E+01 -1.00060477E+01 -1.00059096E+01 -9.99232732E+00 -9.99232724E+00
 -8.09501008E-01 -7.53980498E-01 -7.17959069E-01 -6.99783451E-01 -6.67486933E-01
 -5.88693726E-01 -5.58912882E-01 -5.31671882E-01 -5.10171564E-01 -4.57452887E-01
 -4.39364730E-01 -4.10600668E-01 -3.97949656E-01 -3.96059249E-01 -3.73963998E-01
 -3.51133559E-01 -3.47300940E-01 -3.24500906E-01 -3.11274011E-01 -2.92797469E-01
 -2.87447728E-01 -2.63539196E-01 -2.12435745E-01 -1.95050068E-01 -1.53064374E-01
  3.74026586E-02  9.03797838E-02  1.10595881E-01  1.82192777E-01  2.72522282E-01
  3.32285502E-01  3.40750262E-01  3.79407112E-01  3.81443240E-01  4.10940917E-01
  4.11930753E-01  4.26734886E-01  4.39620297E-01  4.52804215E-01  4.78288412E-01
  5.26243407E-01  5.45797655E-01  5.76024727E-01  5.99472729E-01  6.24973760E-01
  6.39744837E-01  6.82746107E-01  7.17177166E-01  7.79514138E-01  7.94567648E-01
Alpha MO coefficients                      R   N=        3600
  6.99294844E-01  3.15665314E-02 -8.38099842E-04 -3.63656725E-04  0.00000000E+00
 -1.85731661E-02 -7.72460013E-03 -3.74455598E-03  2.31241994E-03  0.00000000E+00
  1.91332136E-02  7.71134239E-03  2.90470663E-04 -4.37084639E-03  0.00000000E+00
 -6.99294844E-01 -3.15665314E-02 -8.38099842E-04 -3.63656725E-04  0.00000000E+00
  1.85731661E-02  7.72460013E-03 -3.74455598E-03  2.31241994E-03  0.00000000E+00
 -1.91332136E-02 -7.71134239E-03  2.90470663E-04 -4.37084639E-03  0.00000000E+00
  3.32826990E-04 -3.32545119E-04 -3.32826990E-04  3.32545119E-04  2.74342446E-02
  6.72597308E-03  3.36053112E-03  2.30310873E-03  0.00000000E+00 -1.79826254E-04
 -4.74484212E-04 -2.60959194E-04 -1.07603624E-04  0.00000000E+00 -3.25912032E-04
  2.87920151E-05  1.48461879E-04 -2.74342446E-02 -6.72597308E-03  3.36053112E-03
  2.30310873E-03  0.00000000E+00  1.79826254E-04  4.74484212E-04 -2.60959194E-04
 -1.07603624E-04  0.00000000E+00  3.25912032E-04 -2.87920151E-05 -1.48461879E-04
  6.99292620E-01  3.13599152E-02 -6.06809857E-04 -2.14403593E-04  0.00000000E+00
 -1.90488650E-02 -6.91271612E-03 -4.01104866E-03  1.98238359E-03  0.00000000E+00
 -1.93912804E-02 -6.87764339E-03  1.47518338E-04  4.42594543E-03  0.00000000E+00
  6.99292620E-01  3.13599152E-02  6.06809857E-04  2.14403593E-04  0.00000000E+00
 -1.90488650E-02 -6.91271612E-03  4.01104866E-03 -1.98238359E-03  0.00000000E+00
 -1.93912804E-02 -6.87764339E-03 -1.47518338E-04 -4.42594543E-03  0.00000000E+00
  2.19885030E-04  2.22821682E-04  2.19885030E-04  2.22821682E-04 -2.77979632E-02
 -6.79381328E-03 -3.39266004E-03 -2.32411012E-03  0.00000000E+00  1.93630774E-04
  4.77697847E-04  2.67376748E-04  1.09474449E-04  0.00000000E+00  3.37158274E-04
 -2.78880142E-05 -1.40613807E-04 -2.77979632E-02 -6.79381328E-03  3.39266004E-03
  2.32411012E-03  0.00000000E+00  1.93630774E-04  4.77697847E-04 -2.67376748E-04
 -1.09474449E-04  0.00000000E+00  3.37158274E-04 -2.78880142E-05 -1.40613807E-04
 -2.80410705E-02  4.12684386E-03  3.61030518E-03  2.15004667E-03  0.00000000E+00
  8.69733379E-03  5.29793438E-04  4.26591206E-05 -1.21406791E-04  0.00000000E+00
 -7.64335891E-03 -4.38643675E-04 -1.18735071E-04  9.62385691E-05  0.00000000E+00
  2.80410705E-02 -4.12684386E-03  3.61030518E-03  2.15004667E-03  0.00000000E+00
 -8.69733379E-03 -5.29793438E-04  4.26591206E-05 -1.21406791E-04  0.00000000E+00
  7.64335891E-03  4.38643675E-04 -1.18735071E-04  9.62385691E-05  0.00000000E+00
 -7.55042708E-05 -6.05039140E-05  7.55042708E-05  6.05039140E-05  6.99826284E-01
  3.07835446E-02 -1.27194651E-03  2.96494511E-04  0.00000000E+00 -8.11739103E-03
 -7.61333307E-03 -4.31816575E-03  1.56651632E-03  0.00000000E+00 -6.42258129E-03
  2.15887412E-04  1.86363946E-04 -6.99826284E-01 -3.07835446E-02 -1.27194651E-03
  2.96494511E-04  0.00000000E+00  8.11739103E-03  7.61333307E-03 -4.31816575E-03
  1.56651632E-03  0.00000000E+00  6.42258129E-03 -2.15887412E-04 -1.86363946E-04
  2.82464401E-02 -4.07209691E-03 -3.58798432E-03 -2.13266517E-03  0.00000000E+00
 -1.15834765E-02 -5.57277317E-04 -1.25745178E-04  1.54850998E-04  0.00000000E+00
 -1.02090582E-02 -4.19476228E-04 -8.85068032E-05  1.90595706E-04  0.00000000E+00
  2.82464401E-02 -4.07209691E-03  3.58798432E-03  2.13266517E-03  0.00000000E+00
 -1.15834765E-02 -5.57277317E-04  1.25745178E-04 -1.54850998E-04  0.00000000E+00
 -1.02090582E-02 -4.19476228E-04  8.85068032E-05 -1.90595706E-04  0.00000000E+00
  8.10347157E-05 -6.22191317E-05  8.10347157E-05 -6.22191317E-05  6.99744617E-01
  3.07650009E-02 -1.28069880E-03  2.90518962E-04  0.00000000E+00 -8.11087961E-03
 -7.61171815E-03 -4.31656075E-03  1.56748306E-03  0.00000000E+00 -6.42035511E-03
  2.16116200E-04  1.86738397E-04  6.99744617E-01  3.07650009E-02  1.28069880E-03
 -2.90518962E-04  0.00000000E+00 -8.11087961E-03 -7.61171815E-03  4.31656075E-03
 -1.56748306E-03  0.00000000E+00 -6.42035511E-03  2.16116200E-04  1.86738397E-04
 -2.75490960E-02  7.90616172E-03 -1.98044980E-03 -2.86486565E-03  0.00000000E+00
 -3.40485069E-01 -2.08916474E-02  3.44023597E-03  2.52864451E-03  0.00000000E+00
  6.11020308E-01  3.03016591E-02  2.77368460E-03  8.45687882E-04  0.00000000E+00
  2.75490960E-02 -7.90616172E-03 -1.98044980E-03 -2.86486565E-03  0.00000000E+00
  3.40485069E-01  2.08916474E-02  3.44023597E-03  2.52864451E-03  0.00000000E+00
 -6.11020308E-01 -3.03016591E-02  2.77368460E-03  8.45687882E-04  0.00000000E+00
  3.23895073E-03 -5.62443283E-03 -3.23895073E-03  5.62443283E-03  9.89579668E-03
  5.57082928E-04 -5.84988309E-05  3.21074063E-05  0.00000000E+00 -9.26748025E-04
 -2.35132742E-04 -1.16991816E-04 -3.98207830E-05  0.00000000E+00 -1.41542440E-04
 -1.02185470E-05  1.58752904E-04 -9.89579668E-03 -5.57082928E-04 -5.84988309E-05
  3.21074063E-05  0.00000000E+00  9.26748025E-04  2.35132742E-04 -1.16991816E-04
 -3.98207830E-05  0.00000000E+00  1.41542440E-04  1.02185470E-05 -1.58752904E-04
  6.93867723E-03 -1.73202789E-03 -2.05980496E-03  4.77587308E-03  0.00000000E+00
 -3.67273652E-01 -2.17646831E-02  3.28690604E-03  2.39383792E-03  0.00000000E+00
  5.95912548E-01  2.96762051E-02  2.66123838E-03  1.03559765E-03  0.00000000E+00
  6.93867723E-03 -1.73202789E-03  2.05980496E-03 -4.77587308E-03  0.00000000E+00
 -3.67273652E-01 -2.17646831E-02 -3.28690604E-03 -2.39383792E-03  0.00000000E+00
  5.95912548E-01  2.96762051E-02 -2.66123838E-03 -1.03559765E-03  0.00000000E+00
  3.40779895E-03 -5.50301890E-03  3.40779895E-03 -5.50301890E-03  2.34398263E-03
  9.63324136E-05 -9.58204979E-05  8.28431573E-05  0.00000000E+00 -4.38092287E-04
 -1.00161242E-04 -2.71460288E-05 -3.41659225E-05  0.00000000E+00 -4.53924587E-05
 -5.52542917E-06  1.60278580E-04  2.34398263E-03  9.63324136E-05  9.58204979E-05
 -8.28431573E-05  0.00000000E+00 -4.38092287E-04 -1.00161242E-04  2.71460288E-05
  3.41659225E-05  0.00000000E+00 -4.53924587E-05 -5.52542917E-06  1.60278580E-04
  7.43488663E-03 -2.24917856E-03  3.34466851E-03 -3.80514914E-03  0.00000000E+00
  6.11779093E-01  2.38184291E-02  1.68316402E-03  2.39118795E-04  0.00000000E+00
  3.41839152E-01  9.30560778E-03 -2.86750705E-03 -2.11670564E-03  0.00000000E+00
 -7.43488663E-03  2.24917856E-03  3.34466851E-03 -3.80514914E-03  0.00000000E+00
 -6.11779093E-01 -2.38184291E-02  1.68316402E-03  2.39118795E-04  0.00000000E+00
 -3.41839152E-01 -9.30560778E-03 -2.86750705E-03 -2.11670564E-03  0.00000000E+00
 -5.42668084E-03 -2.92750361E-03  5.42668084E-03  2.92750361E-03 -3.61059371E-03
 -2.05445541E-04  2.29939265E-05  1.32939711E-05  0.00000000E+00 -9.13416095E-05
  4.88285125E-05  3.76036052E-05 -3.55849853E-05  0.00000000E+00  6.32529503E-05
 -8.70193591E-06  6.51419814E-05  3.61059371E-03  2.05445541E-04  2.29939265E-05
  1.32939711E-05  0.00000000E+00  9.13416095E-05 -4.88285125E-05  3.76036052E-05
 -3.55849853E-05  0.00000000E+00 -6.32529503E-05  8.70193591E-06 -6.51419814E-05
  2.83896414E-02 -7.32855551E-03  3.17830119E-03  5.08759480E-04  0.00000000E+00
  5.96077382E-01  2.27381584E-02  1.73905780E-03  7.06517058E-04  0.00000000E+00
  3.67557556E-01  1.05730078E-02 -2.90353715E-03 -1.86151369E-03  0.00000000E+00
  2.83896414E-02 -7.32855551E-03 -3.17830119E-03 -5.08759480E-04  0.00000000E+00
  5.96077382E-01  2.27381584E-02 -1.73905780E-03 -7.06517058E-04  0.00000000E+00
  3.67557556E-01  1.05730078E-02  2.90353715E-03  1.86151369E-03  0.00000000E+00
 -5.44551934E-03 -3.34507787E-03 -5.44551934E-03 -3.34507787E-03  1.41837596E-02
  6.19233552E-04 -1.63232349E-04 -5.80587629E-05  0.00000000E+00 -1.08542755E-03
 -2.82862797E-04 -1.70530074E-04 -2.00702299E-05  0.00000000E+00 -2.20711591E-04
 -1.08401152E-05  7.33047483E-05  1.41837596E-02  6.19233552E-04  1.63232349E-04
  5.80587629E-05  0.00000000E+00 -1.08542755E-03 -2.82862797E-04  1.70530074E-04
  2.00702299E-05  0.00000000E+00 -2.20711591E-04 -1.08401152E-05  7.33047483E-05
 -1.79452576E-04 -1.58750978E-04 -5.37434455E-05  2.47023754E-06  0.00000000E+00
 -2.83915706E-04  2.18130688E-06  7.72946525E-05  2.37849350E-05  0.00000000E+00
  7.91268791E-04 -1.48545608E-05  9.53543820E-05  4.45461058E-05  0.00000000E+00
  1.79452576E-04  1.58750978E-04 -5.37434455E-05  2.47023754E-06  0.00000000E+00
  2.83915706E-04 -2.18130688E-06  7.72946525E-05  2.37849350E-05  0.00000000E+00