dvb not allowed to optimize fully                                       
FOpt      RB3LYP                                                      STO-3G              
Number of atoms                            I               20
Info1-9                                    I   N=           9
          27          27           0           0           0         110
           2          18        -502
Charge                                     I                0
Multiplicity                               I                1
Number of electrons                        I               70
Number of alpha electrons                  I               35
Number of beta electrons                   I               35
Number of basis functions                  I               60
Number of independent functions            I               60
Number of point charges in /Mol/           I                0
Number of translation vectors              I                0
Atomic numbers                             I   N=          20
           6           6           6           6           6           6
           1           1           1           1           6           6
           1           1           1           6           6           1
           1           1
Nuclear charges                            R   N=          20
  6.00000000E+00  6.00000000E+00  6.00000000E+00  6.00000000E+00  6.00000000E+00
  6.00000000E+00  1.00000000E+00  1.00000000E+00  1.00000000E+00  1.00000000E+00
  6.00000000E+00  6.00000000E+00  1.00000000E+00  1.00000000E+00  1.00000000E+00
  6.00000000E+00  6.00000000E+00  1.00000000E+00  1.00000000E+00  1.00000000E+00
Current cartesian coordinates              R   N=          60
  2.32704371E+00  1.39617924E+00  0.00000000E+00 -5.25236406E-02  2.64969840E+00
  0.00000000E+00 -2.32704371E+00  1.29064876E+00  0.00000000E+00 -2.32704371E+00
 -1.39617924E+00  0.00000000E+00  5.25236406E-02 -2.64969840E+00  0.00000000E+00
  2.32704371E+00 -1.29064876E+00  0.00000000E+00 -9.69821197E-02  4.72514954E+00
  0.00000000E+00 -4.13057675E+00  2.31717424E+00  0.00000000E+00  9.69821197E-02
 -4.72514954E+00  0.00000000E+00  4.13057675E+00 -2.31717424E+00  0.00000000E+00
 -4.69301891E+00 -2.92986215E+00  0.00000000E+00 -7.06904398E+00 -2.03177814E+00
  0.00000000E+00 -4.39454592E+00 -4.98781623E+00  0.00000000E+00 -8.70311773E+00
 -3.30467169E+00  0.00000000E+00 -7.48713002E+00 -2.48544026E-03  0.00000000E+00
  4.69301891E+00  2.92986215E+00  0.00000000E+00  7.06904398E+00  2.03177814E+00
  0.00000000E+00  4.39454592E+00  4.98781623E+00  0.00000000E+00  8.70311773E+00
  3.30467169E+00  0.00000000E+00  7.48713002E+00  2.48544026E-03  0.00000000E+00
Force Field                                I                0
Int Atom Types                             I   N=          20
           0           0           0           0           0           0
           0           0           0           0           0           0
           0           0           0           0           0           0
           0           0
MM charges                                 R   N=          20
  0.00000000E+00  0.00000000E+00  0.00000000E+00  0.00000000E+00  0.00000000E+00
  0.00000000E+00  0.00000000E+00  0.00000000E+00  0.00000000E+00  0.00000000E+00
  0.00000000E+00  0.00000000E+00  0.00000000E+00  0.00000000E+00  0.00000000E+00
  0.00000000E+00  0.00000000E+00  0.00000000E+00  0.00000000E+00  0.00000000E+00
Integer atomic weights                     I   N=          20
          12          12          12          12          12          12
           1           1           1           1          12          12
           1           1           1          12          12           1
           1           1
Real atomic weights                        R   N=          20
  1.20000000E+01  1.20000000E+01  1.20000000E+01  1.20000000E+01  1.20000000E+01
  1.20000000E+01  1.00782504E+00  1.00782504E+00  1.00782504E+00  1.00782504E+00
  1.20000000E+01  1.20000000E+01  1.00782504E+00  1.00782504E+00  1.00782504E+00
  1.20000000E+01  1.20000000E+01  1.00782504E+00  1.00782504E+00  1.00782504E+00
Atom fragment info                         I   N=          20
           0           0           0           0           0           0
           0           0           0           0           0           0
           0           0           0           0           0           0
           0           0
Atom residue num                           I   N=          20
           0           0           0           0           0           0
           0           0           0           0           0           0
           0           0           0           0           0           0
           0           0
Nuclear spins                              I   N=          20
           0           0           0           0           0           0
           1           1           1           1           0           0
           1           1           1           0           0           1
           1           1
Nuclear ZEff                               R   N=          20
 -3.60000000E+00 -3.60000000E+00 -3.60000000E+00 -3.60000000E+00 -3.60000000E+00
 -3.60000000E+00 -1.00000000E+00 -1.00000000E+00 -1.00000000E+00 -1.00000000E+00
 -3.60000000E+00 -3.60000000E+00 -1.00000000E+00 -1.00000000E+00 -1.00000000E+00
 -3.60000000E+00 -3.60000000E+00 -1.00000000E+00 -1.00000000E+00 -1.00000000E+00
Nuclear QMom                               R   N=          20
  0.00000000E+00  0.00000000E+00  0.00000000E+00  0.00000000E+00  0.00000000E+00
  0.00000000E+00  0.00000000E+00  0.00000000E+00  0.00000000E+00  0.00000000E+00
  0.00000000E+00  0.00000000E+00  0.00000000E+00  0.00000000E+00  0.00000000E+00
  0.00000000E+00  0.00000000E+00  0.00000000E+00  0.00000000E+00  0.00000000E+00
Nuclear GFac                               R   N=          20
  0.00000000E+00  0.00000000E+00  0.00000000E+00  0.00000000E+00  0.00000000E+00
  0.00000000E+00  2.79284600E+00  2.79284600E+00  2.79284600E+00  2.79284600E+00
  0.00000000E+00  0.00000000E+00  2.79284600E+00  2.79284600E+00  2.79284600E+00
  0.00000000E+00  0.00000000E+00  2.79284600E+00  2.79284600E+00  2.79284600E+00
MicOpt                                     I   N=          20
          -1          -1          -1          -1          -1          -1
          -1          -1          -1          -1          -1          -1
          -1          -1          -1          -1          -1          -1
          -1          -1
Number of contracted shells                I               30
Number of primitive shells                 I               90
Pure/Cartesian d shells                    I                0
Pure/Cartesian f shells                    I                0
Highest angular momentum                   I                1
Largest degree of contraction              I                3
Shell types                                I   N=          30
           0          -1           0          -1           0          -1
           0          -1           0          -1           0          -1
           0           0           0           0           0          -1
           0          -1           0           0           0           0
          -1           0          -1           0           0           0
Number of primitives per shell             I   N=          30
           3           3           3           3           3           3
           3           3           3           3           3           3
           3           3           3           3           3           3
           3           3           3           3           3           3
           3           3           3           3           3           3
Shell to atom map                          I   N=          30
           1           1           2           2           3           3
           4           4           5           5           6           6
           7           8           9          10          11          11
          12          12          13          14          15          16
          16          17          17          18          19          20
Primitive exponents                        R   N=          90
  7.16168373E+01  1.30450963E+01  3.53051216E+00  2.94124936E+00  6.83483096E-01
  2.22289916E-01  7.16168373E+01  1.30450963E+01  3.53051216E+00  2.94124936E+00
  6.83483096E-01  2.22289916E-01  7.16168373E+01  1.30450963E+01  3.53051216E+00
  2.94124936E+00  6.83483096E-01  2.22289916E-01  7.16168373E+01  1.30450963E+01
  3.53051216E+00  2.94124936E+00  6.83483096E-01  2.22289916E-01  7.16168373E+01
  1.30450963E+01  3.53051216E+00  2.94124936E+00  6.83483096E-01  2.22289916E-01
  7.16168373E+01  1.30450963E+01  3.53051216E+00  2.94124936E+00  6.83483096E-01
  2.22289916E-01  3.42525091E+00  6.23913730E-01  1.68855404E-01  3.42525091E+00
  6.23913730E-01  1.68855404E-01  3.42525091E+00  6.23913730E-01  1.68855404E-01
  3.42525091E+00  6.23913730E-01  1.68855404E-01  7.16168373E+01  1.30450963E+01
  3.53051216E+00  2.94124936E+00  6.83483096E-01  2.22289916E-01  7.16168373E+01
  1.30450963E+01  3.53051216E+00  2.94124936E+00  6.83483096E-01  2.22289916E-01
  3.42525091E+00  6.23913730E-01  1.68855404E-01  3.42525091E+00  6.23913730E-01
  1.68855404E-01  3.42525091E+00  6.23913730E-01  1.68855404E-01  7.16168373E+01
  1.30450963E+01  3.53051216E+00  2.94124936E+00  6.83483096E-01  2.22289916E-01
  7.16168373E+01  1.30450963E+01  3.53051216E+00  2.94124936E+00  6.83483096E-01
  2.22289916E-01  3.42525091E+00  6.23913730E-01  1.68855404E-01  3.42525091E+00
  6.23913730E-01  1.68855404E-01  3.42525091E+00  6.23913730E-01  1.68855404E-01
Contraction coefficients                   R   N=          90
  1.54328967E-01  5.35328142E-01  4.44634542E-01 -9.99672292E-02  3.99512826E-01
  7.00115469E-01  1.54328967E-01  5.35328142E-01  4.44634542E-01 -9.99672292E-02
  3.99512826E-01  7.00115469E-01  1.54328967E-01  5.35328142E-01  4.44634542E-01
 -9.99672292E-02  3.99512826E-01  7.00115469E-01  1.54328967E-01  5.35328142E-01
  4.44634542E-01 -9.99672292E-02  3.99512826E-01  7.00115469E-01  1.54328967E-01
  5.35328142E-01  4.44634542E-01 -9.99672292E-02  3.99512826E-01  7.00115469E-01
  1.54328967E-01  5.35328142E-01  4.44634542E-01 -9.99672292E-02  3.99512826E-01
  7.00115469E-01  1.54328967E-01  5.35328142E-01  4.44634542E-01  1.54328967E-01
  5.35328142E-01  4.44634542E-01  1.54328967E-01  5.35328142E-01  4.44634542E-01
  1.54328967E-01  5.35328142E-01  4.44634542E-01  1.54328967E-01  5.35328142E-01
  4.44634542E-01 -9.99672292E-02  3.99512826E-01  7.00115469E-01  1.54328967E-01
  5.35328142E-01  4.44634542E-01 -9.99672292E-02  3.99512826E-01  7.00115469E-01
  1.54328967E-01  5.35328142E-01  4.44634542E-01  1.54328967E-01  5.35328142E-01
  4.44634542E-01  1.54328967E-01  5.35328142E-01  4.44634542E-01  1.54328967E-01
  5.35328142E-01  4.44634542E-01 -9.99672292E-02  3.99512826E-01  7.00115469E-01
  1.54328967E-01  5.35328142E-01  4.44634542E-01 -9.99672292E-02  3.99512826E-01
  7.00115469E-01  1.54328967E-01  5.35328142E-01  4.44634542E-01  1.54328967E-01
  5.35328142E-01  4.44634542E-01  1.54328967E-01  5.35328142E-01  4.44634542E-01
P(S=P) Contraction coefficients            R   N=          90
  0.00000000E+00  0.00000000E+00  0.00000000E+00  1.55916275E-01  6.07683719E-01
  3.91957393E-01  0.00000000E+00  0.00000000E+00  0.00000000E+00  1.55916275E-01
  6.07683719E-01  3.91957393E-01  0.00000000E+00  0.00000000E+00  0.00000000E+00
  1.55916275E-01  6.07683719E-01  3.91957393E-01  0.00000000E+00  0.00000000E+00
  0.00000000E+00  1.55916275E-01  6.07683719E-01  3.91957393E-01  0.00000000E+00
  0.00000000E+00  0.00000000E+00  1.55916275E-01  6.07683719E-01  3.91957393E-01
  0.00000000E+00  0.00000000E+00  0.00000000E+00  1.55916275E-01  6.07683719E-01
  3.91957393E-01  0.00000000E+00  0.00000000E+00  0.00000000E+00  0.00000000E+00
  0.00000000E+00  0.00000000E+00  0.00000000E+00  0.00000000E+00  0.00000000E+00
  0.00000000E+00  0.00000000E+00  0.00000000E+00  0.00000000E+00  0.00000000E+00
  0.00000000E+00  1.55916275E-01  6.07683719E-01  3.91957393E-01  0.00000000E+00
  0.00000000E+00  0.00000000E+00  1.55916275E-01  6.07683719E-01  3.91957393E-01
  0.00000000E+00  0.00000000E+00  0.00000000E+00  0.00000000E+00  0.00000000E+00
  0.00000000E+00  0.00000000E+00  0.00000000E+00  0.00000000E+00  0.00000000E+00
  0.00000000E+00  0.00000000E+00  1.55916275E-01  6.07683719E-01  3.91957393E-01
  0.00000000E+00  0.00000000E+00  0.00000000E+00  1.55916275E-01  6.07683719E-01
  3.91957393E-01  0.00000000E+00  0.00000000E+00  0.00000000E+00  0.00000000E+00
  0.00000000E+00  0.00000000E+00  0.00000000E+00  0.00000000E+00  0.00000000E+00
Coordinates of each shell                  R   N=          90
  2.32704371E+00  1.39617924E+00  0.00000000E+00  2.32704371E+00  1.39617924E+00
  0.00000000E+00 -5.25236406E-02  2.64969840E+00  0.00000000E+00 -5.25236406E-02
  2.64969840E+00  0.00000000E+00 -2.32704371E+00  1.29064876E+00  0.00000000E+00
 -2.32704371E+00  1.29064876E+00  0.00000000E+00 -2.32704371E+00 -1.39617924E+00
  0.00000000E+00 -2.32704371E+00 -1.39617924E+00  0.00000000E+00  5.25236406E-02
 -2.64969840E+00  0.00000000E+00  5.25236406E-02 -2.64969840E+00  0.00000000E+00
  2.32704371E+00 -1.29064876E+00  0.00000000E+00  2.32704371E+00 -1.29064876E+00
  0.00000000E+00 -9.69821197E-02  4.72514954E+00  0.00000000E+00 -4.13057675E+00
  2.31717424E+00  0.00000000E+00  9.69821197E-02 -4.72514954E+00  0.00000000E+00
  4.13057675E+00 -2.31717424E+00  0.00000000E+00 -4.69301891E+00 -2.92986215E+00
  0.00000000E+00 -4.69301891E+00 -2.92986215E+00  0.00000000E+00 -7.06904398E+00
 -2.03177814E+00  0.00000000E+00 -7.06904398E+00 -2.03177814E+00  0.00000000E+00
 -4.39454592E+00 -4.98781623E+00  0.00000000E+00 -8.70311773E+00 -3.30467169E+00
  0.00000000E+00 -7.48713002E+00 -2.48544026E-03  0.00000000E+00  4.69301891E+00
  2.92986215E+00  0.00000000E+00  4.69301891E+00  2.92986215E+00  0.00000000E+00
  7.06904398E+00  2.03177814E+00  0.00000000E+00  7.06904398E+00  2.03177814E+00
  0.00000000E+00  4.39454592E+00  4.98781623E+00  0.00000000E+00  8.70311773E+00
  3.30467169E+00  0.00000000E+00  7.48713002E+00  2.48544026E-03  0.00000000E+00
Constraint Structure                       R   N=          60
  2.28298302E+00  1.31791169E+00  0.00000000E+00 -4.44595553E-04  2.63583936E+00
  0.00000000E+00 -2.28298302E+00  1.31806449E+00  0.00000000E+00 -2.28298302E+00
 -1.31791169E+00  0.00000000E+00  4.44595553E-04 -2.63583936E+00  0.00000000E+00
  2.28298302E+00 -1.31806449E+00  0.00000000E+00 -2.76116384E-05  4.71388636E+00
  0.00000000E+00 -4.08288060E+00  2.35673896E+00  0.00000000E+00  2.76116384E-05
 -4.71388636E+00  0.00000000E+00  4.08288060E+00 -2.35673896E+00  0.00000000E+00
 -4.80339994E+00 -2.77338565E+00  0.00000000E+00 -7.02997500E+00 -1.62426238E+00
  0.00000000E+00 -4.60736604E+00 -4.83952311E+00  0.00000000E+00 -8.82759657E+00
 -2.66153613E+00  0.00000000E+00 -7.22600891E+00  4.41875102E-01  0.00000000E+00
  4.80339994E+00  2.77338565E+00  0.00000000E+00  7.02997500E+00  1.62426238E+00
  0.00000000E+00  4.60736604E+00  4.83952311E+00  0.00000000E+00  8.82759657E+00
  2.66153613E+00  0.00000000E+00  7.22600891E+00 -4.41875102E-01  0.00000000E+00
Num ILSW                                   I              100
ILSW                                       I   N=         100
           0           0           0           0           2           0
           0           0           0           0         402          -1
           0           0           0           0           0           0
           0           0           0           0           1           0
           0           0           1           0           0           0
           0           0      100000           0          -1           0
           0           0           0           0           0           0
           0           0           0           1           0           0
           0           0           1           0           0           0
           0           0           4          40           0           0
           0           0           5           0           0           0
           0           0           0           0           0           0
           0           0           0           0           0           0
           0           0           0           0           0           0
           0           0           0           0           0           0
           0           0           0           0           0           0
           0           0           0           0
Num RLSW                                   I               40
RLSW                                       R   N=          40
  8.00000000E-01  7.20000000E-01  1.00000000E+00  8.10000000E-01  2.00000000E-01
  0.00000000E+00  0.00000000E+00  1.00000000E+00  0.00000000E+00  0.00000000E+00
  0.00000000E+00  0.00000000E+00  1.00000000E+00  0.00000000E+00  0.00000000E+00
  0.00000000E+00  0.00000000E+00  1.00000000E+00  0.00000000E+00  0.00000000E+00
  0.00000000E+00  0.00000000E+00  1.00000000E+00  0.00000000E+00  0.00000000E+00
  0.00000000E+00  0.00000000E+00  1.00000000E+00  0.00000000E+00  0.00000000E+00
  0.00000000E+00  0.00000000E+00  1.00000000E+00  0.00000000E+00  0.00000000E+00
  0.00000000E+00  0.00000000E+00  0.00000000E+00  1.00000000E+00  1.00000000E+00
MxBond                                     I                3
NBond                                      I   N=          20
           3           3           3           3           3           3
           1           1           1           1           3           3
           1           1           1           3           3           1
           1           1
IBond                                      I   N=          60
           2           6          16           1           3           7
           2           4           8           3           5          11
           4           6           9           1           5          10
           2           0           0           3           0           0
           5           0           0           6           0           0
           4          12          13          11          14          15
          11           0           0          12           0           0
          12           0           0           1          17          18
          16          19          20          16           0           0
          17           0           0          17           0           0
RBond                                      R   N=          60
  1.50000000E+00  1.50000000E+00  1.00000000E+00  1.50000000E+00  1.50000000E+00
  1.00000000E+00  1.50000000E+00  1.50000000E+00  1.00000000E+00  1.50000000E+00
  1.50000000E+00  1.00000000E+00  1.50000000E+00  1.50000000E+00  1.00000000E+00
  1.50000000E+00  1.50000000E+00  1.00000000E+00  1.00000000E+00  0.00000000E+00
  0.00000000E+00  1.00000000E+00  0.00000000E+00  0.00000000E+00  1.00000000E+00
  0.00000000E+00  0.00000000E+00  1.00000000E+00  0.00000000E+00  0.00000000E+00
  1.00000000E+00  2.00000000E+00  1.00000000E+00  2.00000000E+00  1.00000000E+00
  1.00000000E+00  1.00000000E+00  0.00000000E+00  0.00000000E+00  1.00000000E+00
  0.00000000E+00  0.00000000E+00  1.00000000E+00  0.00000000E+00  0.00000000E+00
  1.00000000E+00  2.00000000E+00  1.00000000E+00  2.00000000E+00  1.00000000E+00
  1.00000000E+00  1.00000000E+00  0.00000000E+00  0.00000000E+00  1.00000000E+00
  0.00000000E+00  0.00000000E+00  1.00000000E+00  0.00000000E+00  0.00000000E+00
Virial Ratio                               R      2.017164678066070E+00
SCF Energy                                 R     -3.823082095411315E+02
Total Energy                               R     -3.823082095411315E+02
RMS Force                                  R      9.712246097017773E-04
RMS Density                                R      7.035991639670187E-09
External E-field                           R   N=          35
  0.00000000E+00  0.00000000E+00  0.00000000E+00  0.00000000E+00  0.00000000E+00
  0.00000000E+00  0.00000000E+00  0.00000000E+00  0.00000000E+00  0.00000000E+00
  0.00000000E+00  0.00000000E+00  0.00000000E+00  0.00000000E+00  0.00000000E+00
  0.00000000E+00  0.00000000E+00  0.00000000E+00  0.00000000E+00  0.00000000E+00
  0.00000000E+00  0.00000000E+00  0.00000000E+00  0.00000000E+00  0.00000000E+00
  0.00000000E+00  0.00000000E+00  0.00000000E+00  0.00000000E+00  0.00000000E+00
  0.00000000E+00  0.00000000E+00  0.00000000E+00  0.00000000E+00  0.00000000E+00
IOpCl                                      I                0
IROHF                                      I                0
Alpha Orbital Energies                     R   N=          60
 -1.00201504E+01 -1.00201032E+01 -1.00080591E+01 -1.00080582E+01 -1.00066975E+01
 -1.00066947E+01 -1.00059822E+01 -1.00058431E+01 -9.99222087E+00 -9.99222079E+00
 -8.09587613E-01 -7.54870593E-01 -7.18214094E-01 -6.99703103E-01 -6.67085146E-01
 -5.89142076E-01 -5.59051612E-01 -5.31821260E-01 -5.09748687E-01 -4.57747093E-01
 -4.39948376E-01 -4.10661963E-01 -3.97970907E-01 -3.96013757E-01 -3.73822675E-01
 -3.50802470E-01 -3.47124047E-01 -3.24664872E-01 -3.11594148E-01 -2.93463437E-01
 -2.87233191E-01 -2.64246622E-01 -2.12415262E-01 -1.95002597E-01 -1.52461549E-01
  3.68558315E-02  9.04625873E-02  1.10548991E-01  1.83001617E-01  2.72814635E-01
  3.34301651E-01  3.40571389E-01  3.80905564E-01  3.81926927E-01  4.10291544E-01
  4.11225162E-01  4.27025343E-01  4.40476153E-01  4.53823817E-01  4.78671751E-01
  5.26090387E-01  5.45519559E-01  5.76345241E-01  5.99620858E-01  6.25642442E-01
  6.41753101E-01  6.83027719E-01  7.17919962E-01  7.79769145E-01  7.95087777E-01
Alpha MO coefficients                      R   N=        3600
  6.99297146E-01  3.16048639E-02 -7.87732162E-04 -3.40696347E-04  0.00000000E+00
 -1.86447962E-02 -7.71551794E-03 -3.74396259E-03  2.30681433E-03  0.00000000E+00
  1.91455417E-02  7.70461272E-03  2.86896611E-04 -4.37021452E-03  0.00000000E+00
 -6.99297146E-01 -3.16048639E-02 -7.87732162E-04 -3.40696347E-04  0.00000000E+00
  1.86447962E-02  7.71551794E-03 -3.74396259E-03  2.30681433E-03  0.00000000E+00
 -1.91455417E-02 -7.70461272E-03  2.86896611E-04 -4.37021452E-03  0.00000000E+00
  3.34044657E-04 -3.33794293E-04 -3.34044657E-04  3.33794293E-04  2.72177993E-02
  6.78116587E-03  3.38265859E-03  2.31126166E-03  0.00000000E+00 -1.59368958E-04
 -4.77119767E-04 -2.60655799E-04 -1.00965131E-04  0.00000000E+00 -3.25392701E-04
  3.02779274E-05  1.49364280E-04 -2.72177993E-02 -6.78116587E-03  3.38265859E-03
  2.31126166E-03  0.00000000E+00  1.59368958E-04  4.77119767E-04 -2.60655799E-04
 -1.00965131E-04  0.00000000E+00  3.25392701E-04 -3.02779274E-05 -1.49364280E-04
  6.99295397E-01  3.13985027E-02 -5.56694395E-04 -1.91427044E-04  0.00000000E+00
 -1.91166918E-02 -6.90523081E-03 -4.00907962E-03  1.97609074E-03  0.00000000E+00
 -1.93942537E-02 -6.87214341E-03  1.51788006E-04  4.42311086E-03  0.00000000E+00
  6.99295397E-01  3.13985027E-02  5.56694395E-04  1.91427044E-04  0.00000000E+00
 -1.91166918E-02 -6.90523081E-03  4.00907962E-03 -1.97609074E-03  0.00000000E+00
 -1.93942537E-02 -6.87214341E-03 -1.51788006E-04 -4.42311086E-03  0.00000000E+00
  2.21586351E-04  2.25149423E-04  2.21586351E-04  2.25149423E-04 -2.75779911E-02
 -6.84923204E-03 -3.41501331E-03 -2.33235426E-03  0.00000000E+00  1.72959516E-04
  4.80233929E-04  2.67125039E-04  1.02750550E-04  0.00000000E+00  3.36515308E-04
 -2.93573373E-05 -1.41207194E-04 -2.75779911E-02 -6.84923204E-03  3.41501331E-03
  2.33235426E-03  0.00000000E+00  1.72959516E-04  4.80233929E-04 -2.67125039E-04
 -1.02750550E-04  0.00000000E+00  3.36515308E-04 -2.93573373E-05 -1.41207194E-04
 -2.78244176E-02  4.19862270E-03  3.62946438E-03  2.15615316E-03  0.00000000E+00
  8.68989195E-03  5.22489924E-04  4.35612421E-05 -1.17196452E-04  0.00000000E+00
 -7.58519160E-03 -4.29838930E-04 -1.13749443E-04  9.37877347E-05  0.00000000E+00
  2.78244176E-02 -4.19862270E-03  3.62946438E-03  2.15615316E-03  0.00000000E+00
 -8.68989195E-03 -5.22489924E-04  4.35612421E-05 -1.17196452E-04  0.00000000E+00
  7.58519160E-03  4.29838930E-04 -1.13749443E-04  9.37877347E-05  0.00000000E+00
 -7.36187332E-05 -6.01160650E-05  7.36187332E-05  6.01160650E-05  6.99829693E-01
  3.08408417E-02 -1.24118750E-03  3.44276385E-04  0.00000000E+00 -8.07122080E-03
 -7.61807853E-03 -4.31321344E-03  1.58773181E-03  0.00000000E+00 -6.42046703E-03
  2.15630654E-04  1.88155916E-04 -6.99829693E-01 -3.08408417E-02 -1.24118750E-03
  3.44276385E-04  0.00000000E+00  8.07122080E-03  7.61807853E-03 -4.31321344E-03
  1.58773181E-03  0.00000000E+00  6.42046703E-03 -2.15630654E-04 -1.88155916E-04
  2.80261202E-02 -4.14384966E-03 -3.60754922E-03 -2.13854002E-03  0.00000000E+00
 -1.16128963E-02 -5.55497273E-04 -1.24453456E-04  1.52050669E-04  0.00000000E+00
 -1.01134828E-02 -4.11220918E-04 -8.46295554E-05  1.87273025E-04  0.00000000E+00
  2.80261202E-02 -4.14384966E-03  3.60754922E-03  2.13854002E-03  0.00000000E+00
 -1.16128963E-02 -5.55497273E-04  1.24453456E-04 -1.52050669E-04  0.00000000E+00
 -1.01134828E-02 -4.11220918E-04  8.46295554E-05 -1.87273025E-04  0.00000000E+00
  7.96577418E-05 -6.18840663E-05  7.96577418E-05 -6.18840663E-05  6.99748393E-01
  3.08222497E-02 -1.24997342E-03  3.38317862E-04  0.00000000E+00 -8.06468324E-03
 -7.61645740E-03 -4.31159444E-03  1.58869067E-03  0.00000000E+00 -6.41827155E-03
  2.15861882E-04  1.88543183E-04  6.99748393E-01  3.08222497E-02  1.24997342E-03
 -3.38317862E-04  0.00000000E+00 -8.06468324E-03 -7.61645740E-03  4.31159444E-03
 -1.58869067E-03  0.00000000E+00 -6.41827155E-03  2.15861882E-04  1.88543183E-04
 -2.77290733E-02  7.93571281E-03 -2.04352710E-03 -2.79130120E-03  0.00000000E+00
 -3.52160938E-01 -2.13389352E-02  3.41054493E-03  2.51988596E-03  0.00000000E+00
  6.04348806E-01  3.01073793E-02  2.82764921E-03  8.84174069E-04  0.00000000E+00
  2.77290733E-02 -7.93571281E-03 -2.04352710E-03 -2.79130120E-03  0.00000000E+00
  3.52160938E-01  2.13389352E-02  3.41054493E-03  2.51988596E-03  0.00000000E+00
 -6.04348806E-01 -3.01073793E-02  2.82764921E-03  8.84174069E-04  0.00000000E+00
  3.34244083E-03 -5.56378164E-03 -3.34244083E-03  5.56378164E-03  9.91562649E-03
  5.60172123E-04 -5.97631781E-05  3.21669296E-05  0.00000000E+00 -9.58557484E-04
 -2.39835949E-04 -1.20144068E-04 -4.13984018E-05  0.00000000E+00 -1.42550446E-04
 -1.07252536E-05  1.62980794E-04 -9.91562649E-03 -5.60172123E-04 -5.97631781E-05
  3.21669296E-05  0.00000000E+00  9.58557484E-04  2.39835949E-04 -1.20144068E-04
 -4.13984018E-05  0.00000000E+00  1.42550446E-04  1.07252536E-05 -1.62980794E-04
  6.42228829E-03 -1.61069213E-03 -2.11050447E-03  4.76597395E-03  0.00000000E+00
 -3.77234103E-01 -2.21375671E-02  3.26024464E-03  2.37706148E-03  0.00000000E+00
  5.89656524E-01  2.94860050E-02  2.70912550E-03  1.06350417E-03  0.00000000E+00
  6.42228829E-03 -1.61069213E-03  2.11050447E-03 -4.76597395E-03  0.00000000E+00
 -3.77234103E-01 -2.21375671E-02 -3.26024464E-03 -2.37706148E-03  0.00000000E+00
  5.89656524E-01  2.94860050E-02 -2.70912550E-03 -1.06350417E-03  0.00000000E+00
  3.49897810E-03 -5.44264488E-03  3.49897810E-03 -5.44264488E-03  2.01230526E-03
  8.32273930E-05 -9.41236456E-05  8.56602689E-05  0.00000000E+00 -4.50499642E-04
 -9.83415531E-05 -2.59594091E-05 -3.62979569E-05  0.00000000E+00 -4.05448977E-05
 -5.90376827E-06  1.64790485E-04  2.01230526E-03  8.32273930E-05  9.41236456E-05
 -8.56602689E-05  0.00000000E+00 -4.50499642E-04 -9.83415531E-05  2.59594091E-05
  3.62979569E-05  0.00000000E+00 -4.05448977E-05 -5.90376827E-06  1.64790485E-04
  6.96060341E-03 -2.08917795E-03  3.30325474E-03 -3.85807712E-03  0.00000000E+00
  6.05132260E-01  2.34065544E-02  1.74308160E-03  2.92078077E-04  0.00000000E+00
  3.53502646E-01  9.88096016E-03 -2.81442181E-03 -2.10202810E-03  0.00000000E+00
 -6.96060341E-03  2.08917795E-03  3.30325474E-03 -3.85807712E-03  0.00000000E+00
 -6.05132260E-01 -2.34065544E-02  1.74308160E-03  2.92078077E-04  0.00000000E+00
 -3.53502646E-01 -9.88096016E-03 -2.81442181E-03 -2.10202810E-03  0.00000000E+00
 -5.36504105E-03 -3.03297361E-03  5.36504105E-03  3.03297361E-03 -3.44286792E-03
 -1.94564056E-04  2.08270097E-05  1.49974793E-05  0.00000000E+00 -1.30569660E-04
  4.20775629E-05  3.37683389E-05 -3.80137580E-05  0.00000000E+00  6.06606230E-05
 -9.22981085E-06  7.08784517E-05  3.44286792E-03  1.94564056E-04  2.08270097E-05
  1.49974793E-05  0.00000000E+00  1.30569660E-04 -4.20775629E-05  3.37683389E-05
 -3.80137580E-05  0.00000000E+00 -6.06606230E-05  9.22981085E-06 -7.08784517E-05
  2.85560414E-02 -7.34359604E-03  3.14331880E-03  5.90365211E-04  0.00000000E+00
  5.89822339E-01  2.23633753E-02  1.78862741E-03  7.49831691E-04  0.00000000E+00
  3.77516169E-01  1.10639931E-02 -2.85749307E-03 -1.84574788E-03  0.00000000E+00
  2.85560414E-02 -7.34359604E-03 -3.14331880E-03 -5.90365211E-04  0.00000000E+00
  5.89822339E-01  2.23633753E-02 -1.78862741E-03 -7.49831691E-04  0.00000000E+00
  3.77516169E-01  1.10639931E-02  2.85749307E-03  1.84574788E-03  0.00000000E+00
 -5.38879958E-03 -3.43425866E-03 -5.38879958E-03 -3.43425866E-03  1.42007954E-02
  6.19680138E-04 -1.65651611E-04 -5.66608416E-05  0.00000000E+00 -1.11946734E-03
 -2.87518489E-04 -1.73265134E-04 -2.20015826E-05  0.00000000E+00 -2.21245240E-04
 -1.15358157E-05  7.86357639E-05  1.42007954E-02  6.19680138E-04  1.65651611E-04
  5.66608416E-05  0.00000000E+00 -1.11946734E-03 -2.87518489E-04  1.73265134E-04
  2.20015826E-05  0.00000000E+00 -2.21245240E-04 -1.15358157E-05  7.86357639E-05
 -1.97873314E-04 -1.60942258E-04 -5.22120015E-05  6.15417123E-07  0.00000000E+00
 -2.82442986E-04  2.19574486E-06  7.87243394E-05  2.40470706E-05  0.00000000E+00
  8.33106793E-04 -1.63352018E-05  9.97480108E-05  4.43324790E-05  0.00000000E+00
  1.97873314E-04  1.60942258E-04 -5.22120015E-05  6.15417123E-07  0.00000000E+00
  2.82442986E-04 -2.19574486E-06  7.87243394E-05  2.40470706E-05  0.00000000E+00