                  Welcome to Q-Chem
     A Quantum Leap Into The Future Of Chemistry


 Q-Chem 5.3 (devel), Q-Chem, Inc., Pleasanton, CA (2020)

 Yihan Shao,  Zhengting Gan,  E. Epifanovsky,  A. T. B. Gilbert,  M. Wormit,  
 J. Kussmann,  A. W. Lange,  A. Behn,  Jia Deng,  Xintian Feng,  D. Ghosh,  
 M. Goldey,  P. R. Horn,  L. D. Jacobson,  I. Kaliman,  T. Kus,  A. Landau,  
 Jie Liu,  E. I. Proynov,  R. M. Richard,  R. P. Steele,  E. J. Sundstrom,  
 H. L. Woodcock III,  P. M. Zimmerman,  D. Zuev,  B. Alam,  B. Albrecht,  
 A. Aldossary,  E. Alguire,  S. A. Baeppler,  D. Barton,  Z. Benda,  
 Y. A. Bernard,  E. J. Berquist,  K. B. Bravaya,  H. Burton,  K. Carter-Fenk,  
 D. Casanova,  Chun-Min Chang,  Yunqing Chen,  A. Chien,  K. D. Closser,  
 M. P. Coons,  S. Coriani,  S. Dasgupta,  A. L. Dempwolff,  M. Diedenhofen,  
 Hainam Do,  R. G. Edgar,  Po-Tung Fang,  S. Faraji,  S. Fatehi,  
 Qingguo Feng,  J. Fosso-Tande,  J. Gayvert,  Qinghui Ge,  A. Ghysels,  
 G. Gidofalvi,  J. Gomes,  J. Gonthier,  S. Gulania,  A. Gunina,  D. Hait,  
 M. W. D. Hanson-Heine,  S. Hammes-Schiffer,  P. H. P. Harbach,  
 A. W. Hauser,  M. F. Herbst,  J. E. Herr,  E. G. Hohenstein,  Z. C. Holden,  
 S. Houck,  Kerwin Hui,  B. C. Huynh,  M. Ivanov,  T.-C. Jagau,  Hyunjun Ji,  
 B. Kaduk,  K. Khistyaev,  Jaehoon Kim,  P. Klunzinger,  K. Koh,  
 D. Kosenkov,  L. Koulias,  T. Kowalczyk,  C. M. Krauter,  A. Kunitsa,  
 Ka Un Lao,  A. Laurent,  K. V. Lawler,  Joonho Lee,  D. Lefrancois,  
 S. Lehtola,  D. S. Levine,  Yi-Pei Li,  You-Sheng Lin,  Fenglai Liu,  
 Kuan-Yu Liu,  E. Livshits,  M. Loipersberger,  A. Luenser,  A. Manjanath,  
 P. Manohar,  E. Mansoor,  S. F. Manzer,  Shan-Ping Mao,  Yuezhi Mao,  
 N. Mardirossian,  A. V. Marenich,  T. Markovich,  L. A. Martinez-Martinez,  
 S. A. Maurer,  N. J. Mayhall,  S. C. McKenzie,  J.-M. Mewes,  P. Morgante,  
 A. F. Morrison,  J. W. Mullinax,  K. Nanda,  T. S. Nguyen-Beck,  
 R. Olivares-Amaya,  K. J. Oosterbaan,  J. A. Parkhill,  S. K. Paul,  
 F. Pavosevic,  Zheng Pei,  T. M. Perrine,  F. Plasser,  P. Pokhilko,  
 S. Prager,  A. Prociuk,  E. Ramos,  B. Rana,  D. R. Rehn,  F. Rob,  
 E. Rossomme,  M. Scheurer,  M. Schneider,  N. Sergueev,  S. M. Sharada,  
 S. Sharma,  W. Skomorowski,  D. W. Small,  T. Stauch,  C. J. Stein,  
 T. Stein,  Yu-Chuan Su,  S. P. Veccham,  Zhen Tao,  A. J. W. Thom,  
 A. Tkatchenko,  T. Tsuchimochi,  N. M. Tubman,  L. Vogt,  M. L. Vidal,  
 O. Vydrov,  M. A. Watson,  J. Wenzel,  M. de Wergifosse,  T. A. Wesolowski,  
 A. White,  J. Witte,  A. Yamada,  Jun Yang,  K. Yao,  S. Yeganeh,  
 S. R. Yost,  Zhi-Qiang You,  A. Zech,  Igor Ying Zhang,  Xing Zhang,  
 Yan Zhao,  Ying Zhu,  B. R. Brooks,  G. K. L. Chan,  C. J. Cramer,  
 M. S. Gordon,  W. J. Hehre,  A. Klamt,  M. W. Schmidt,  C. D. Sherrill,  
 D. G. Truhlar,  A. Aspuru-Guzik,  R. Baer,  A. T. Bell,  N. A. Besley,  
 Jeng-Da Chai,  A. E. DePrince, III,  R. A. DiStasio Jr.,  A. Dreuw,  
 B. D. Dunietz,  T. R. Furlani,  Chao-Ping Hsu,  Yousung Jung,  Jing Kong,  
 D. S. Lambrecht,  WanZhen Liang,  C. Ochsenfeld,  V. A. Rassolov,  
 L. V. Slipchenko,  J. E. Subotnik,  T. Van Voorhis,  J. M. Herbert,  
 A. I. Krylov,  P. M. W. Gill,  M. Head-Gordon

 Contributors to earlier versions of Q-Chem not listed above: 
 R. D. Adamson,  B. Austin,  J. Baker,  G. J. O. Beran,  K. Brandhorst,  
 S. T. Brown,  E. F. C. Byrd,  A. K. Chakraborty,  C.-L. Cheng,  
 Siu Hung Chien,  D. M. Chipman,  D. L. Crittenden,  H. Dachsel,  
 R. J. Doerksen,  A. D. Dutoi,  L. Fusti-Molnar,  W. A. Goddard III,  
 A. Golubeva-Zadorozhnaya,  S. R. Gwaltney,  G. Hawkins,  A. Heyden,  
 S. Hirata,  G. Kedziora,  F. J. Keil,  C. Kelley,  Jihan Kim,  R. A. King,  
 R. Z. Khaliullin,  P. P. Korambath,  W. Kurlancheek,  A. M. Lee,  M. S. Lee,  
 S. V. Levchenko,  Ching Yeh Lin,  D. Liotard,  R. C. Lochan,  I. Lotan,  
 P. E. Maslen,  N. Nair,  D. P. O'Neill,  D. Neuhauser,  E. Neuscamman,  
 C. M. Oana,  R. Olson,  B. Peters,  R. Peverati,  P. A. Pieniazek,  
 Y. M. Rhee,  J. Ritchie,  M. A. Rohrdanz,  E. Rosta,  N. J. Russ,  
 H. F. Schaefer III,  N. E. Schultz,  N. Shenvi,  A. C. Simmonett,  A. Sodt,  
 D. Stuck,  K. S. Thanthiriwatte,  V. Vanovschi,  Tao Wang,  A. Warshel,  
 C. F. Williams,  Q. Wu,  X. Xu,  W. Zhang

 Please cite Q-Chem as follows:
 Y. Shao et al., Mol. Phys. 113, 184-215 (2015)
 DOI: 10.1080/00268976.2014.952696

 Q-Chem 5.3.2 for Intel X86 EM64T Linux

 Parts of Q-Chem use Armadillo 9.800.1 (Horizon Scraper).
 http://arma.sourceforge.net/

Compilation information
-----------------------

 SVN revision             | 35976
 SVN branch               | trunk
 Last SVN revision        | 35971
 Last SVN author          | tarek.scheele
 Hostname                 | osmium
 User                     | eric
 System                   | Linux-5.8.14-arch1-1
 Processor                | x86_64
 Compiler                 | GNU
 C compiler version       | 9.3.0
 CXX compiler version     | 9.3.0
 Fortran compiler version | 9.3.0
 Configuration time       | 2021-02-25 00:06:41


 Q-Chem begins on Mon Apr 26 11:21:02 2021  

Host: osmium
0

     Scratch files written to /tmp/qchem/ts_30//
Processing $rem in /home/eric/data/opt/apps/qchem/archive/r35971-g9.3.0-openblas/config/preferences:
Processing $rem in /home/eric/.qchemrc:

Checking the input file for inconsistencies... 	...done.

--------------------------------------------------------------
User input:
--------------------------------------------------------------
$comment
image # 30 Energy = -230.01576: initial exact Hessian
$end

$molecule
0 1
C 2.18128   -0.45290  0.29432   
C 0.90247   0.48625   0.17017   
C 0.35130   0.41060   -1.20795  
C -0.51607  -0.65225  -0.99990  
C -0.84672  -0.40643  0.42215   
C -2.10948  0.54613   0.51456   
H 2.71676   -0.33950  1.26871   
H 2.95136   -0.22802  -0.45187  
H 1.94001   -1.49383  0.17603   
H 1.32632   1.53481   0.42862   
H 0.38544   1.13647   -1.95784  
H -0.66213  -1.54720  -1.57617  
H -1.19567  -1.35640  0.96419   
H -2.53024  0.64993   1.56930   
H -2.96341  0.17616   -0.05732  
H -1.91897  1.54263   0.15243
$end

$rem
jobtype = freq
method = hf
basis = sto-3g
$end

--------------------------------------------------------------
 ----------------------------------------------------------------
             Standard Nuclear Orientation (Angstroms)
    I     Atom           X                Y                Z
 ----------------------------------------------------------------
    1      C      -2.1901872630    -0.5103665763     0.2577290781
    2      C      -0.8266790933    -0.3816226129    -0.5528518397
    3      C      -0.3800984375     1.0357745571    -0.5694953430
    4      C       0.3766250024     1.0027323466     0.5930636833
    5      C       0.8262124397    -0.4067673238     0.5368061261
    6      C       2.1896859881    -0.4954301318    -0.2654106578
    7      H      -2.6438938642    -1.5298187403     0.1952641456
    8      H      -2.9786669610     0.1476341871    -0.1240149435
    9      H      -2.0736322083    -0.2704712283     1.2991723761
   10      H      -1.1141299116    -0.7754872584    -1.6055464615
   11      H      -0.3837453631     1.7046002088    -1.3713973047
   12      H       0.3844104169     1.6749841416     1.4311406788
   13      H       1.1035002397    -0.8226210503     1.5703406534
   14      H       2.6885368693    -1.5194052112    -0.2114410340
   15      H       2.9576527022     0.1750497298     0.1267689713
   16      H       2.0866162623    -0.2503863318    -1.3093333631
 ----------------------------------------------------------------
 Molecular Point Group                 C1    NOp =  1
 Largest Abelian Subgroup              C1    NOp =  1
 Nuclear Repulsion Energy =         224.39052658 hartrees
 There are       23 alpha and       23 beta electrons
 Requested basis set is STO-3G
 There are 22 shells and 40 basis functions

 Total QAlloc Memory Limit   2000 MB
 Mega-Array Size       188 MB
 MEM_STATIC part       192 MB
 A cutoff of  1.0D-11 yielded    244 shell pairs
 There are       847 function pairs
 Smallest overlap matrix eigenvalue = 1.92E-01
 Guess from superposition of atomic densities
 Warning:  Energy on first SCF cycle will be non-variational
 SAD guess density has 46.000000 electrons

 -----------------------------------------------------------------------
  General SCF calculation program by
  Eric Jon Sundstrom, Paul Horn, Yuezhi Mao, Dmitri Zuev, Alec White,
  David Stuck, Shaama M.S., Shane Yost, Joonho Lee, David Small,
  Daniel Levine, Susi Lehtola, Hugh Burton, Evgeny Epifanovsky,
  Bang C. Huynh
 -----------------------------------------------------------------------
 Hartree-Fock
 A restricted SCF calculation will be
 performed using DIIS
 SCF converges when DIIS error is below 1.0e-08
 ---------------------------------------
  Cycle       Energy         DIIS error
 ---------------------------------------
    1    -228.9456956844      1.56e-01  
    2    -229.9834629587      1.05e-02  
    3    -230.0248189320      2.97e-03  
    4    -230.0283008042      7.88e-04  
    5    -230.0285267786      1.68e-04  
    6    -230.0285482745      9.02e-05  
    7    -230.0285564986      3.24e-05  
    8    -230.0285575804      8.31e-06  
    9    -230.0285576524      1.82e-06  
   10    -230.0285576550      7.57e-07  
   11    -230.0285576556      2.61e-07  
   12    -230.0285576557      7.50e-08  
   13    -230.0285576557      1.86e-08  
   14    -230.0285576554      5.39e-09  Convergence criterion met
 ---------------------------------------
 SCF time:   CPU 0.45s  wall 0.00s 
 SCF   energy in the final basis set =     -230.0285576554
 Total energy in the final basis set =     -230.0285576554

 --------------------------------------------------------------

                    Orbital Energies (a.u.)
 --------------------------------------------------------------

 Alpha MOs
 -- Occupied --
-11.0488 -11.0481 -11.0385 -11.0375 -10.9995 -10.9953  -1.0671  -0.9492
 -0.9022  -0.8046  -0.7511  -0.6552  -0.6180  -0.5570  -0.5264  -0.5165
 -0.5130  -0.4664  -0.4542  -0.4187  -0.4159  -0.3193  -0.2323
 -- Virtual --
  0.2730   0.2865   0.5955   0.6074   0.6518   0.6530   0.6736   0.6756
  0.7080   0.7268   0.7405   0.7530   0.7676   0.7702   0.8189   0.8277
  1.0800
 --------------------------------------------------------------

          Ground-State Mulliken Net Atomic Charges

     Atom                 Charge (a.u.)
  ----------------------------------------
      1 C                    -0.173117
      2 C                    -0.005329
      3 C                    -0.088033
      4 C                    -0.073002
      5 C                    -0.013240
      6 C                    -0.167908
      7 H                     0.051234
      8 H                     0.060524
      9 H                     0.060549
     10 H                     0.028206
     11 H                     0.062913
     12 H                     0.057674
     13 H                     0.031838
     14 H                     0.046927
     15 H                     0.060477
     16 H                     0.060286
  ----------------------------------------
  Sum of atomic charges =     0.000000

 -----------------------------------------------------------------
                    Cartesian Multipole Moments
 -----------------------------------------------------------------
    Charge (ESU x 10^10)
                 0.0000
    Dipole Moment (Debye)
         X       0.0134      Y       0.0950      Z       0.0231
       Tot       0.0987
    Quadrupole Moments (Debye-Ang)
        XX     -35.0910     XY       0.0290     YY     -37.1866
        XZ       0.6144     YZ      -0.0169     ZZ     -35.4702
    Octopole Moments (Debye-Ang^2)
       XXX      -0.0282    XXY      -1.0537    XYY       0.0525
       YYY       0.1700    XXZ      -0.0623    XYZ      -0.0803
       YYZ       0.0122    XZZ       0.0193    YZZ       1.9192
       ZZZ       0.1036
    Hexadecapole Moments (Debye-Ang^3)
      XXXX    -539.6389   XXXY      -0.2625   XXYY    -117.7996
      XYYY       0.0592   YYYY    -167.3419   XXXZ       3.0869
      XXYZ       0.0098   XYYZ       1.1053   YYYZ      -0.0758
      XXZZ    -113.5614   XYZZ       0.0133   YYZZ     -46.2799
      XZZZ       0.6116   YZZZ       0.0894   ZZZZ    -121.5928
 -----------------------------------------------------------------
 Calculating MO derivatives via CPSCF
    1     0    51    0.0656566  
    2     0    51    0.0113979  
    3     0    51    0.0014917  
    4    18    33    0.0000547  
    5    48     3    0.0000027  
    6    51     0    0.0000001  Converged
 Time for AOints: 0.1 s (CPU) 0.1 s (wall)
 ------------------------------------------------------------------------------
                     AOints        : Timing summary (seconds)
 ------------------------------------------------------------------------------
     job step          cpu (% of tot)      sys (% of tot)     wall (% of tot)
 ------------------------------------------------------------------------------
  AOints            0.8521E-01 (10.7)   0.0000E+00 ( NaN)   0.8546E-01 (10.6)
 ------------------------------------------------------------------------------
   Grand Totals     0.7994E+00          0.0000E+00          0.8031E+00
 ------------------------------------------------------------------------------
 Polarizability Matrix (a.u.)
            1           2           3
    1 -47.7402310   0.3638288 -11.1177178
    2   0.3638288 -29.8496948  -0.0664036
    3 -11.1177178  -0.0664036 -35.5646650
 Calculating analytic Hessian of the SCF energy

 Direct stationary perturbation theory relativistic correction:

 rels  =       0.055759080718
 relv  =      -0.226157073390
 rel2e =       0.097869220071
 E_rel =      -0.072528772601

 Hessian of the SCF Energy
            1           2           3           4           5           6
    1   0.6856136  -0.0073857   0.0709881  -0.1953396  -0.0184781   0.0765517
    2  -0.0073857   0.7585288   0.0267903  -0.0134954  -0.0853558  -0.0071845
    3   0.0709881   0.0267903   0.8472925   0.0584983  -0.0111774  -0.1531640
    4  -0.1953396  -0.0134954   0.0584983   0.4367741   0.1738985  -0.0547263
    5  -0.0184781  -0.0853558  -0.0111774   0.1738985   0.5961305   0.1257778
    6   0.0765517  -0.0071845  -0.1531640  -0.0547263   0.1257778   0.5845941
    7  -0.0132686  -0.0420203   0.0087443  -0.1175285  -0.0645675  -0.0184712
    8  -0.0052569  -0.0176914   0.0108242  -0.0988337  -0.3260860  -0.0203390
    9   0.0030488   0.0144777   0.0071359  -0.0137619   0.0425247  -0.1149931
   10  -0.0043341   0.0022086  -0.0109894   0.0017805  -0.0554202  -0.0192937
   11   0.0038262  -0.0125563   0.0069518  -0.0593730   0.0059537  -0.0754520
   12   0.0006373   0.0097778  -0.0047869  -0.0073350  -0.0600179  -0.0123446
   13  -0.0135317   0.0090257  -0.0094603  -0.0172506  -0.0066081   0.0511562
   14  -0.0069045   0.0005742  -0.0074015   0.0035941  -0.0804674   0.0132173
   15   0.0033349  -0.0038749   0.0040759   0.0523418  -0.0153902  -0.0343934
   16  -0.0003717   0.0009903  -0.0003824  -0.0134723   0.0067597   0.0035290
   17  -0.0010622   0.0030516  -0.0019784  -0.0085508   0.0001332   0.0039801
   18  -0.0004510   0.0020371  -0.0016101  -0.0095615   0.0076223   0.0046709
   19  -0.1317224  -0.1147131  -0.0096620  -0.0077780  -0.0287187  -0.0054451
   20  -0.1060556  -0.3448554  -0.0190029   0.0037074   0.0050862  -0.0011627
   21  -0.0090470  -0.0157254  -0.0896182   0.0065270   0.0193186   0.0016761
   22  -0.2568454   0.1611635  -0.0986662  -0.0191802   0.0123400  -0.0117446
   23   0.1535774  -0.2120916   0.0801022  -0.0073748   0.0041490  -0.0030754
   24  -0.0885862   0.0739068  -0.1249879   0.0155779  -0.0116081   0.0084918
   25  -0.0768094  -0.0104866  -0.0460882   0.0072044   0.0097642   0.0366660
   26  -0.0120854  -0.0951507  -0.0899441   0.0019372   0.0000762   0.0040485
   27  -0.0512194  -0.0893537  -0.4640445  -0.0052295  -0.0049494  -0.0119805
   28   0.0046697   0.0119554   0.0372301  -0.1035508  -0.0205902  -0.0637103
   29  -0.0022892   0.0045718   0.0045682  -0.0112343  -0.1164298  -0.0520799
   30  -0.0057092  -0.0097115  -0.0204030  -0.0398666  -0.0786962  -0.2773444
   31   0.0002805   0.0000239  -0.0005601   0.0109386  -0.0145246   0.0144330
   32   0.0013589  -0.0022358   0.0003747   0.0029162   0.0033192   0.0196535
   33   0.0007215  -0.0007738  -0.0000951  -0.0048858  -0.0080820   0.0029269
   34   0.0017220   0.0005129   0.0028728   0.0017419   0.0073401  -0.0170959
   35   0.0004242   0.0020505   0.0005085   0.0019899  -0.0031683  -0.0066887
   36  -0.0002492   0.0003523  -0.0008182  -0.0023492  -0.0055774   0.0008910
   37   0.0002304   0.0011123  -0.0011921   0.0134444  -0.0000901   0.0038493
   38   0.0000949   0.0016550  -0.0012305   0.0094428  -0.0044639   0.0002180
   39  -0.0001629  -0.0000508   0.0000897   0.0057206   0.0000723   0.0025293
   40   0.0001206  -0.0002182  -0.0000473   0.0008101   0.0008222   0.0001712
   41   0.0000351   0.0000565   0.0000773  -0.0000063   0.0002321  -0.0000597
   42  -0.0000440   0.0001149   0.0001044  -0.0002635  -0.0000919  -0.0002274
   43  -0.0004102   0.0011811  -0.0009624  -0.0004697  -0.0005007   0.0031379
   44   0.0002318  -0.0004492   0.0005083   0.0012247   0.0005208  -0.0012049
   45   0.0002251  -0.0007642   0.0007349   0.0008449  -0.0003865  -0.0014959
   46  -0.0000038   0.0001457  -0.0003234   0.0018758  -0.0014264   0.0009929
   47  -0.0000308  -0.0001022   0.0000292   0.0001573   0.0003702   0.0003516
   48  -0.0000386  -0.0000182   0.0000946  -0.0015312   0.0006612   0.0001632
            7           8           9          10          11          12
    1  -0.0132686  -0.0052569   0.0030488  -0.0043341   0.0038262   0.0006373
    2  -0.0420203  -0.0176914   0.0144777   0.0022086  -0.0125563   0.0097778
    3   0.0087443   0.0108242   0.0071359  -0.0109894   0.0069518  -0.0047869
    4  -0.1175285  -0.0988337  -0.0137619   0.0017805  -0.0593730  -0.0073350
    5  -0.0645675  -0.3260860   0.0425247  -0.0554202   0.0059537  -0.0600179
    6  -0.0184712  -0.0203390  -0.1149931  -0.0192937  -0.0754520  -0.0123446
    7   0.3375490   0.0735743   0.2313252  -0.1754528   0.0018276  -0.1793755
    8   0.0735743   0.7749243  -0.3139459   0.0065431  -0.1515519   0.0130495
    9   0.2313252  -0.3139459   0.8903678  -0.1807640   0.0029865  -0.4224001
   10  -0.1754528   0.0065431  -0.1807640   0.3543764  -0.0855221   0.2300227
   11   0.0018276  -0.1515519   0.0029865  -0.0855221   0.7492061   0.2578211
   12  -0.1793755   0.0130495  -0.4224001   0.2300227   0.2578211   0.8577884
   13   0.0024783   0.0555821  -0.0037347  -0.1157305   0.1057432  -0.0099150
   14   0.0539858   0.0012212   0.0582083   0.0700237  -0.3338462  -0.0470503
   15  -0.0163565   0.0743231  -0.0081591  -0.0168099   0.0148513  -0.1152169
   16  -0.0039671  -0.0037277   0.0007318  -0.0148305   0.0055956   0.0034662
   17  -0.0017266  -0.0116707  -0.0096217   0.0416606  -0.0173134  -0.0156052
   18  -0.0111028  -0.0070155  -0.0054948   0.0103281  -0.0120705   0.0062302
   19  -0.0049771  -0.0007598   0.0025858  -0.0004254  -0.0014525   0.0012761
   20  -0.0004492   0.0003120  -0.0005563   0.0004078  -0.0000785   0.0004141
   21   0.0038811   0.0000893  -0.0009356  -0.0003140   0.0007499  -0.0001500
   22   0.0025230   0.0020778  -0.0001685  -0.0013454   0.0019163  -0.0007478
   23  -0.0011790   0.0013327  -0.0006467   0.0000925   0.0003264  -0.0000737
   24  -0.0009161  -0.0020415   0.0003822   0.0014292  -0.0015727   0.0009256
   25   0.0008655   0.0013617  -0.0010376   0.0009302  -0.0006928  -0.0007197
   26   0.0006248   0.0007917   0.0004662  -0.0002163   0.0001924  -0.0003134
   27  -0.0005441   0.0004091   0.0015745  -0.0006421   0.0003860   0.0001088
   28  -0.0028638  -0.0116734  -0.0159107   0.0038352  -0.0102610  -0.0002517
   29  -0.0052055   0.0008971  -0.0355653  -0.0024275  -0.0048016  -0.0045416
   30  -0.0006785   0.0043777   0.0047040   0.0005589  -0.0042718   0.0007861
   31  -0.0142241  -0.0086610   0.0113991  -0.0149006   0.0234078  -0.0327499
   32  -0.0129429  -0.2728190   0.2401450   0.0039620   0.0032943   0.0024357
   33  -0.0291195   0.2563937  -0.3649186   0.0123796   0.0190292   0.0121053
   34  -0.0143925  -0.0208954  -0.0332575  -0.0288593   0.0057779   0.0107900
   35  -0.0041462   0.0048444  -0.0028924   0.0122347  -0.2408544  -0.1930509
   36   0.0113210  -0.0203410   0.0105994  -0.0278271  -0.2063115  -0.3298990
   37   0.0040192   0.0104418  -0.0001262  -0.0033893   0.0122163  -0.0162227
   38   0.0026622  -0.0048389   0.0045148   0.0050575  -0.0003622   0.0362433
   39   0.0008064   0.0038954   0.0011858  -0.0006582  -0.0046819   0.0056860
   40  -0.0005260   0.0013037   0.0011595  -0.0048117   0.0005510   0.0025300
   41  -0.0003981  -0.0000413  -0.0004293   0.0004035   0.0002887   0.0006177
   42  -0.0002517  -0.0007195  -0.0000749   0.0037581  -0.0000433  -0.0009242
   43  -0.0012338  -0.0018096  -0.0007862   0.0023300  -0.0022997  -0.0003914
   44  -0.0002347   0.0001770   0.0000112   0.0015588   0.0013178   0.0007508
   45   0.0013521   0.0014477   0.0009340  -0.0007337   0.0021312   0.0006274
   46   0.0009991   0.0007332  -0.0007029   0.0008273  -0.0012609  -0.0010137
   47   0.0001955   0.0001988   0.0003232  -0.0005668   0.0007852  -0.0004569
   48  -0.0006143  -0.0004073   0.0000929  -0.0004445  -0.0005032   0.0014639
           13          14          15          16          17          18
    1  -0.0135317  -0.0069045   0.0033349  -0.0003717  -0.0010622  -0.0004510
    2   0.0090257   0.0005742  -0.0038749   0.0009903   0.0030516   0.0020371
    3  -0.0094603  -0.0074015   0.0040759  -0.0003824  -0.0019784  -0.0016101
    4  -0.0172506   0.0035941   0.0523418  -0.0134723  -0.0085508  -0.0095615
    5  -0.0066081  -0.0804674  -0.0153902   0.0067597   0.0001332   0.0076223
    6   0.0511562   0.0132173  -0.0343934   0.0035290   0.0039801   0.0046709
    7   0.0024783   0.0539858  -0.0163565  -0.0039671  -0.0017266  -0.0111028
    8   0.0555821   0.0012212   0.0743231  -0.0037277  -0.0116707  -0.0070155
    9  -0.0037347   0.0582083  -0.0081591   0.0007318  -0.0096217  -0.0054948
   10  -0.1157305   0.0700237  -0.0168099  -0.0148305   0.0416606   0.0103281
   11   0.1057432  -0.3338462   0.0148513   0.0055956  -0.0173134  -0.0120705
   12  -0.0099150  -0.0470503  -0.1152169   0.0034662  -0.0156052   0.0062302
   13   0.4418808  -0.1735525  -0.0601744  -0.2028667   0.0105468   0.0613616
   14  -0.1735525   0.6105791  -0.1323421   0.0157892  -0.0839634   0.0137882
   15  -0.0601744  -0.1323421   0.5935847   0.0810018   0.0100352  -0.1534120
   16  -0.2028667   0.0157892   0.0810018   0.6919469   0.0273602   0.0611165
   17   0.0105468  -0.0839634   0.0100352   0.0273602   0.7220136  -0.0189761
   18   0.0613616   0.0137882  -0.1534120   0.0611165  -0.0189761   0.8508730
   19   0.0009123  -0.0007072   0.0001145   0.0001249   0.0002292  -0.0000360
   20  -0.0000203   0.0002054   0.0000592  -0.0000299   0.0000683  -0.0000656
   21  -0.0002894   0.0000585  -0.0001965  -0.0000486  -0.0001184   0.0001022
   22  -0.0005673   0.0003017   0.0029686  -0.0003612  -0.0011343  -0.0009459
   23  -0.0013089   0.0004250   0.0011913  -0.0002120  -0.0004657  -0.0005360
   24   0.0009660   0.0005103  -0.0013698   0.0001936   0.0007539   0.0007422
   25   0.0017985   0.0013236   0.0009935   0.0000071  -0.0001383  -0.0003209
   26  -0.0000781   0.0003681  -0.0003390   0.0000354  -0.0000992  -0.0000283
   27  -0.0014995  -0.0006390   0.0001836  -0.0000417   0.0000086   0.0000833
   28   0.0129660   0.0000080   0.0035169   0.0003055  -0.0010821  -0.0012087
   29  -0.0092251  -0.0041065  -0.0002077  -0.0001541   0.0016043   0.0012205
   30   0.0054785  -0.0001754   0.0025337  -0.0001621   0.0000623   0.0000867
   31   0.0016855  -0.0064783  -0.0177126   0.0017279  -0.0007203   0.0028897
   32  -0.0015842  -0.0039568   0.0068299  -0.0004305   0.0021807  -0.0004632
   33  -0.0024228   0.0052441   0.0019286  -0.0002846  -0.0002815  -0.0008086
   34   0.0107191   0.0138405   0.0146290   0.0004103  -0.0000693  -0.0006087
   35  -0.0030787   0.0039937  -0.0187418  -0.0013713  -0.0022293  -0.0004319
   36  -0.0053032   0.0075084   0.0023710   0.0006131   0.0006990  -0.0000038
   37  -0.1023611   0.0236814  -0.0670784   0.0044759  -0.0131380   0.0376683
   38   0.0134836  -0.1203262   0.0629075   0.0024861   0.0043737  -0.0038279
   39  -0.0433766   0.0908606  -0.2908811  -0.0054780   0.0102383  -0.0200677
   40  -0.0078671   0.0279301  -0.0052243  -0.1353215   0.1025729  -0.0078177
   41  -0.0041263   0.0057544   0.0009544   0.0937009  -0.3028821   0.0143431
   42   0.0067106  -0.0183786   0.0013389  -0.0073294   0.0114288  -0.0937942
   43  -0.0196529  -0.0127302  -0.0119772  -0.2510701  -0.1640350  -0.1009437
   44   0.0069017   0.0038888   0.0026534  -0.1578147  -0.2195399  -0.0867184
   45   0.0157469   0.0118313   0.0086048  -0.0911862  -0.0799097  -0.1279454
   46   0.0073875  -0.0101054   0.0364322  -0.0767375   0.0092871  -0.0403674
   47  -0.0017008  -0.0003435  -0.0029095   0.0110227  -0.0952619   0.0911224
   48  -0.0052440   0.0047599  -0.0109923  -0.0457391   0.0892850  -0.4596519
           19          20          21          22          23          24
    1  -0.1317224  -0.1060556  -0.0090470  -0.2568454   0.1535774  -0.0885862
    2  -0.1147131  -0.3448554  -0.0157254   0.1611635  -0.2120916   0.0739068
    3  -0.0096620  -0.0190029  -0.0896182  -0.0986662   0.0801022  -0.1249879
    4  -0.0077780   0.0037074   0.0065270  -0.0191802  -0.0073748   0.0155779
    5  -0.0287187   0.0050862   0.0193186   0.0123400   0.0041490  -0.0116081
    6  -0.0054451  -0.0011627   0.0016761  -0.0117446  -0.0030754   0.0084918
    7  -0.0049771  -0.0004492   0.0038811   0.0025230  -0.0011790  -0.0009161
    8  -0.0007598   0.0003120   0.0000893   0.0020778   0.0013327  -0.0020415
    9   0.0025858  -0.0005563  -0.0009356  -0.0001685  -0.0006467   0.0003822
   10  -0.0004254   0.0004078  -0.0003140  -0.0013454   0.0000925   0.0014292
   11  -0.0014525  -0.0000785   0.0007499   0.0019163   0.0003264  -0.0015727
   12   0.0012761   0.0004141  -0.0001500  -0.0007478  -0.0000737   0.0009256
   13   0.0009123  -0.0000203  -0.0002894  -0.0005673  -0.0013089   0.0009660
   14  -0.0007072   0.0002054   0.0000585   0.0003017   0.0004250   0.0005103
   15   0.0001145   0.0000592  -0.0001965   0.0029686   0.0011913  -0.0013698
   16   0.0001249  -0.0000299  -0.0000486  -0.0003612  -0.0002120   0.0001936
   17   0.0002292   0.0000683  -0.0001184  -0.0011343  -0.0004657   0.0007539
   18  -0.0000360  -0.0000656   0.0001022  -0.0009459  -0.0005360   0.0007422
   19   0.1292942   0.1168665   0.0077291   0.0145419   0.0319654   0.0028071
   20   0.1168665   0.3633233   0.0195105  -0.0148268  -0.0219717  -0.0056504
   21   0.0077291   0.0195105   0.0797577   0.0077097   0.0188690   0.0029174
   22   0.0145419  -0.0148268   0.0077097   0.2615864  -0.1645358   0.0990593
   23   0.0319654  -0.0219717   0.0188690  -0.1645358   0.2187894  -0.0878294
   24   0.0028071  -0.0056504   0.0029174   0.0990593  -0.0878294   0.1228810
   25  -0.0013317   0.0001750  -0.0151499  -0.0007767  -0.0108510  -0.0302479
   26  -0.0036805  -0.0027338  -0.0430047   0.0030865   0.0094493   0.0331472
   27   0.0020605   0.0061067   0.0051645   0.0024976  -0.0081443  -0.0100029
   28   0.0015209   0.0002407  -0.0008195   0.0011276  -0.0001729  -0.0008413
   29   0.0009063   0.0005101   0.0002024  -0.0001263   0.0001149   0.0001615
   30  -0.0012986   0.0000888   0.0012330  -0.0002106   0.0000105   0.0003361
   31  -0.0002504   0.0000825  -0.0001287  -0.0002547   0.0002445   0.0000499
   32  -0.0005421   0.0000691   0.0003881   0.0003239   0.0001410  -0.0002353
   33  -0.0002018   0.0001282   0.0001315  -0.0000473  -0.0000278  -0.0000385
   34   0.0002679  -0.0000777  -0.0001958   0.0002676  -0.0000126  -0.0002764
   35   0.0004335   0.0000212  -0.0002737  -0.0003655  -0.0001756   0.0002195
   36   0.0000424   0.0001079  -0.0000394  -0.0001323  -0.0000043   0.0000251
   37  -0.0000702   0.0000022   0.0000676  -0.0002552  -0.0000116   0.0003761
   38   0.0001379   0.0000549  -0.0000472  -0.0004446  -0.0000886   0.0004171
   39  -0.0000442  -0.0000028   0.0000194   0.0001032   0.0000296  -0.0000298
   40  -0.0001141  -0.0000296   0.0000665   0.0000190  -0.0000137   0.0000149
   41   0.0000321  -0.0000008  -0.0000167  -0.0000009  -0.0000020  -0.0000149
   42   0.0000639   0.0000148  -0.0000414   0.0000028   0.0000061  -0.0000229
   43   0.0000273   0.0000074   0.0000017  -0.0004217  -0.0001985   0.0003329
   44   0.0000105  -0.0000050  -0.0000053   0.0001839   0.0000537  -0.0001315
   45   0.0000095   0.0000092  -0.0000221   0.0003224   0.0001388  -0.0002458
   46  -0.0000202  -0.0000002   0.0000102  -0.0000577  -0.0000090   0.0000609
   47  -0.0000074  -0.0000052   0.0000049   0.0000407   0.0000138  -0.0000326
   48  -0.0000011   0.0000012   0.0000012  -0.0000004  -0.0000100  -0.0000039
           25          26          27          28          29          30
    1  -0.0768094  -0.0120854  -0.0512194   0.0046697  -0.0022892  -0.0057092
    2  -0.0104866  -0.0951507  -0.0893537   0.0119554   0.0045718  -0.0097115
    3  -0.0460882  -0.0899441  -0.4640445   0.0372301   0.0045682  -0.0204030
    4   0.0072044   0.0019372  -0.0052295  -0.1035508  -0.0112343  -0.0398666
    5   0.0097642   0.0000762  -0.0049494  -0.0205902  -0.1164298  -0.0786962
    6   0.0366660   0.0040485  -0.0119805  -0.0637103  -0.0520799  -0.2773444
    7   0.0008655   0.0006248  -0.0005441  -0.0028638  -0.0052055  -0.0006785
    8   0.0013617   0.0007917   0.0004091  -0.0116734   0.0008971   0.0043777
    9  -0.0010376   0.0004662   0.0015745  -0.0159107  -0.0355653   0.0047040
   10   0.0009302  -0.0002163  -0.0006421   0.0038352  -0.0024275   0.0005589
   11  -0.0006928   0.0001924   0.0003860  -0.0102610  -0.0048016  -0.0042718
   12  -0.0007197  -0.0003134   0.0001088  -0.0002517  -0.0045416   0.0007861
   13   0.0017985  -0.0000781  -0.0014995   0.0129660  -0.0092251   0.0054785
   14   0.0013236   0.0003681  -0.0006390   0.0000080  -0.0041065  -0.0001754
   15   0.0009935  -0.0003390   0.0001836   0.0035169  -0.0002077   0.0025337
   16   0.0000071   0.0000354  -0.0000417   0.0003055  -0.0001541  -0.0001621
   17  -0.0001383  -0.0000992   0.0000086  -0.0010821   0.0016043   0.0000623
   18  -0.0003209  -0.0000283   0.0000833  -0.0012087   0.0012205   0.0000867
   19  -0.0013317  -0.0036805   0.0020605   0.0015209   0.0009063  -0.0012986
   20   0.0001750  -0.0027338   0.0061067   0.0002407   0.0005101   0.0000888
   21  -0.0151499  -0.0430047   0.0051645  -0.0008195   0.0002024   0.0012330
   22  -0.0007767   0.0030865   0.0024976   0.0011276  -0.0001263  -0.0002106
   23  -0.0108510   0.0094493  -0.0081443  -0.0001729   0.0001149   0.0000105
   24  -0.0302479   0.0331472  -0.0100029  -0.0008413   0.0001615   0.0003361
   25   0.0752902   0.0113432   0.0514074  -0.0064440  -0.0013108   0.0042541
   26   0.0113432   0.0864432   0.0956784  -0.0006789   0.0009780   0.0000783
   27   0.0514074   0.0956784   0.4793410   0.0030454   0.0003500  -0.0004239
   28  -0.0064440  -0.0006789   0.0030454   0.0908084   0.0318269   0.0378949
   29  -0.0013108   0.0009780   0.0003500   0.0318269   0.1119222   0.0878018
   30   0.0042541   0.0000783  -0.0004239   0.0378949   0.0878018   0.2873876
   31   0.0000140   0.0000035  -0.0000031  -0.0003184   0.0009250  -0.0000623
   32  -0.0002066  -0.0000230  -0.0000288   0.0022101   0.0015804   0.0002591
   33  -0.0000179   0.0000190   0.0000152  -0.0000677   0.0001348   0.0004151
   34  -0.0005234  -0.0001577   0.0001593  -0.0026175  -0.0018180  -0.0009182
   35  -0.0002556  -0.0001162   0.0000833  -0.0020527   0.0015729  -0.0004307
   36   0.0002781   0.0001209  -0.0000090  -0.0001352  -0.0009551   0.0005051
   37  -0.0001762  -0.0000785   0.0000385   0.0010684  -0.0002319   0.0007395
   38  -0.0000552  -0.0001897   0.0000969   0.0001960   0.0017881   0.0006669
   39  -0.0000645   0.0000285  -0.0000142   0.0007795  -0.0006358   0.0002045
   40  -0.0000214   0.0000062  -0.0000027  -0.0000793  -0.0001316  -0.0000506
   41   0.0000028  -0.0000041  -0.0000012   0.0000084   0.0000468   0.0000035
   42   0.0000090  -0.0000042   0.0000034   0.0000693   0.0000465   0.0000254
   43  -0.0000574  -0.0000410  -0.0000055  -0.0002531   0.0004438   0.0001077
   44   0.0000058   0.0000123   0.0000136  -0.0000184  -0.0000584  -0.0000287
   45   0.0000575   0.0000308   0.0000011   0.0003619  -0.0003983  -0.0000289
   46   0.0000304  -0.0000202  -0.0000212  -0.0001749   0.0000523  -0.0000767
   47   0.0000207   0.0000053  -0.0000162   0.0000842  -0.0001905  -0.0000347
   48  -0.0000190   0.0000160  -0.0000002   0.0000471  -0.0001021  -0.0000172
           31          32          33          34          35          36
    1   0.0002805   0.0013589   0.0007215   0.0017220   0.0004242  -0.0002492
    2   0.0000239  -0.0022358  -0.0007738   0.0005129   0.0020505   0.0003523
    3  -0.0005601   0.0003747  -0.0000951   0.0028728   0.0005085  -0.0008182
    4   0.0109386   0.0029162  -0.0048858   0.0017419   0.0019899  -0.0023492
    5  -0.0145246   0.0033192  -0.0080820   0.0073401  -0.0031683  -0.0055774
    6   0.0144330   0.0196535   0.0029269  -0.0170959  -0.0066887   0.0008910
    7  -0.0142241  -0.0129429  -0.0291195  -0.0143925  -0.0041462   0.0113210
    8  -0.0086610  -0.2728190   0.2563937  -0.0208954   0.0048444  -0.0203410
    9   0.0113991   0.2401450  -0.3649186  -0.0332575  -0.0028924   0.0105994
   10  -0.0149006   0.0039620   0.0123796  -0.0288593   0.0122347  -0.0278271
   11   0.0234078   0.0032943   0.0190292   0.0057779  -0.2408544  -0.2063115
   12  -0.0327499   0.0024357   0.0121053   0.0107900  -0.1930509  -0.3298990
   13   0.0016855  -0.0015842  -0.0024228   0.0107191  -0.0030787  -0.0053032
   14  -0.0064783  -0.0039568   0.0052441   0.0138405   0.0039937   0.0075084
   15  -0.0177126   0.0068299   0.0019286   0.0146290  -0.0187418   0.0023710
   16   0.0017279  -0.0004305  -0.0002846   0.0004103  -0.0013713   0.0006131
   17  -0.0007203   0.0021807  -0.0002815  -0.0000693  -0.0022293   0.0006990
   18   0.0028897  -0.0004632  -0.0008086  -0.0006087  -0.0004319  -0.0000038
   19  -0.0002504  -0.0005421  -0.0002018   0.0002679   0.0004335   0.0000424
   20   0.0000825   0.0000691   0.0001282  -0.0000777   0.0000212   0.0001079
   21  -0.0001287   0.0003881   0.0001315  -0.0001958  -0.0002737  -0.0000394
   22  -0.0002547   0.0003239  -0.0000473   0.0002676  -0.0003655  -0.0001323
   23   0.0002445   0.0001410  -0.0000278  -0.0000126  -0.0001756  -0.0000043
   24   0.0000499  -0.0002353  -0.0000385  -0.0002764   0.0002195   0.0000251
   25   0.0000140  -0.0002066  -0.0000179  -0.0005234  -0.0002556   0.0002781
   26   0.0000035  -0.0000230   0.0000190  -0.0001577  -0.0001162   0.0001209
   27  -0.0000031  -0.0000288   0.0000152   0.0001593   0.0000833  -0.0000090
   28  -0.0003184   0.0022101  -0.0000677  -0.0026175  -0.0020527  -0.0001352
   29   0.0009250   0.0015804   0.0001348  -0.0018180   0.0015729  -0.0009551
   30  -0.0000623   0.0002591   0.0004151  -0.0009182  -0.0004307   0.0005051
   31   0.0187953   0.0032350   0.0237152  -0.0008255   0.0003906  -0.0001540
   32   0.0032350   0.2658598  -0.2711683  -0.0005602   0.0012531   0.0013608
   33   0.0237152  -0.2711683   0.3490857  -0.0000807  -0.0012455  -0.0011916
   34  -0.0008255  -0.0005602  -0.0000807   0.0328395  -0.0025966   0.0241044
   35   0.0003906   0.0012531  -0.0012455  -0.0025966   0.2311247   0.2233137
   36  -0.0001540   0.0013608  -0.0011916   0.0241044   0.2233137   0.3170807
   37  -0.0027054   0.0021085   0.0000641  -0.0002761  -0.0020507  -0.0000150
   38   0.0018140   0.0015861   0.0008860  -0.0009185   0.0014802  -0.0001569
   39  -0.0008217   0.0004637   0.0005297  -0.0000290  -0.0002486   0.0004268
   40   0.0003161  -0.0004694   0.0000485  -0.0002394   0.0005253  -0.0001500
   41   0.0000792   0.0000219  -0.0001105  -0.0000726   0.0000885  -0.0001235
   42  -0.0002124   0.0002966  -0.0000523  -0.0001214  -0.0003714   0.0000973
   43   0.0002342   0.0003957  -0.0001075  -0.0002363  -0.0002989  -0.0000285
   44   0.0000419  -0.0001718  -0.0000172  -0.0002794   0.0001297   0.0000257
   45  -0.0002521  -0.0002300   0.0000013   0.0000228   0.0002289  -0.0000489
   46  -0.0005130   0.0002256   0.0003066   0.0000016   0.0002179  -0.0000152
   47   0.0001362  -0.0000993  -0.0001284  -0.0000136  -0.0000149  -0.0000191
   48   0.0001700  -0.0000815  -0.0000346   0.0000052   0.0000216   0.0000135
           37          38          39          40          41          42
    1   0.0002304   0.0000949  -0.0001629   0.0001206   0.0000351  -0.0000440
    2   0.0011123   0.0016550  -0.0000508  -0.0002182   0.0000565   0.0001149
    3  -0.0011921  -0.0012305   0.0000897  -0.0000473   0.0000773   0.0001044
    4   0.0134444   0.0094428   0.0057206   0.0008101  -0.0000063  -0.0002635
    5  -0.0000901  -0.0044639   0.0000723   0.0008222   0.0002321  -0.0000919
    6   0.0038493   0.0002180   0.0025293   0.0001712  -0.0000597  -0.0002274
    7   0.0040192   0.0026622   0.0008064  -0.0005260  -0.0003981  -0.0002517
    8   0.0104418  -0.0048389   0.0038954   0.0013037  -0.0000413  -0.0007195
    9  -0.0001262   0.0045148   0.0011858   0.0011595  -0.0004293  -0.0000749
   10  -0.0033893   0.0050575  -0.0006582  -0.0048117   0.0004035   0.0037581
   11   0.0122163  -0.0003622  -0.0046819   0.0005510   0.0002887  -0.0000433
   12  -0.0162227   0.0362433   0.0056860   0.0025300   0.0006177  -0.0009242
   13  -0.1023611   0.0134836  -0.0433766  -0.0078671  -0.0041263   0.0067106
   14   0.0236814  -0.1203262   0.0908606   0.0279301   0.0057544  -0.0183786
   15  -0.0670784   0.0629075  -0.2908811  -0.0052243   0.0009544   0.0013389
   16   0.0044759   0.0024861  -0.0054780  -0.1353215   0.0937009  -0.0073294
   17  -0.0131380   0.0043737   0.0102383   0.1025729  -0.3028821   0.0114288
   18   0.0376683  -0.0038279  -0.0200677  -0.0078177   0.0143431  -0.0937942
   19  -0.0000702   0.0001379  -0.0000442  -0.0001141   0.0000321   0.0000639
   20   0.0000022   0.0000549  -0.0000028  -0.0000296  -0.0000008   0.0000148
   21   0.0000676  -0.0000472   0.0000194   0.0000665  -0.0000167  -0.0000414
   22  -0.0002552  -0.0004446   0.0001032   0.0000190  -0.0000009   0.0000028
   23  -0.0000116  -0.0000886   0.0000296  -0.0000137  -0.0000020   0.0000061
   24   0.0003761   0.0004171  -0.0000298   0.0000149  -0.0000149  -0.0000229
   25  -0.0001762  -0.0000552  -0.0000645  -0.0000214   0.0000028   0.0000090
   26  -0.0000785  -0.0001897   0.0000285   0.0000062  -0.0000041  -0.0000042
   27   0.0000385   0.0000969  -0.0000142  -0.0000027  -0.0000012   0.0000034
   28   0.0010684   0.0001960   0.0007795  -0.0000793   0.0000084   0.0000693
   29  -0.0002319   0.0017881  -0.0006358  -0.0001316   0.0000468   0.0000465
   30   0.0007395   0.0006669   0.0002045  -0.0000506   0.0000035   0.0000254
   31  -0.0027054   0.0018140  -0.0008217   0.0003161   0.0000792  -0.0002124
   32   0.0021085   0.0015861   0.0004637  -0.0004694   0.0000219   0.0002966
   33   0.0000641   0.0008860   0.0005297   0.0000485  -0.0001105  -0.0000523
   34  -0.0002761  -0.0009185  -0.0000290  -0.0002394  -0.0000726  -0.0001214
   35  -0.0020507   0.0014802  -0.0002486   0.0005253   0.0000885  -0.0003714
   36  -0.0000150  -0.0001569   0.0004268  -0.0001500  -0.0001235   0.0000973
   37   0.0899111  -0.0344394   0.0405519   0.0015377  -0.0001374  -0.0007771
   38  -0.0344394   0.1177247  -0.0998805  -0.0008139   0.0005002  -0.0002797
   39   0.0405519  -0.0998805   0.2991355  -0.0013392  -0.0001700   0.0012551
   40   0.0015377  -0.0008139  -0.0013392   0.1327391  -0.1055989   0.0061589
   41  -0.0001374   0.0005002  -0.0001700  -0.1055989   0.3220411  -0.0148257
   42  -0.0007771  -0.0002797   0.0012551   0.0061589  -0.0148257   0.0841518
   43   0.0010547   0.0001221  -0.0001673   0.0147004   0.0157671   0.0083378
   44   0.0002404   0.0001297  -0.0000084  -0.0299242  -0.0226654  -0.0188254
   45  -0.0008394  -0.0002079   0.0002823   0.0024794   0.0056085   0.0029406
   46  -0.0065084   0.0011744   0.0041800  -0.0012627   0.0003113  -0.0161110
   47   0.0003749   0.0009768   0.0000905   0.0034879  -0.0034344   0.0416319
   48   0.0028956  -0.0003201  -0.0003513   0.0020027  -0.0058528   0.0052203
           43          44          45          46          47          48
    1  -0.0004102   0.0002318   0.0002251  -0.0000038  -0.0000308  -0.0000386
    2   0.0011811  -0.0004492  -0.0007642   0.0001457  -0.0001022  -0.0000182
    3  -0.0009624   0.0005083   0.0007349  -0.0003234   0.0000292   0.0000946
    4  -0.0004697   0.0012247   0.0008449   0.0018758   0.0001573  -0.0015312
    5  -0.0005007   0.0005208  -0.0003865  -0.0014264   0.0003702   0.0006612
    6   0.0031379  -0.0012049  -0.0014959   0.0009929   0.0003516   0.0001632
    7  -0.0012338  -0.0002347   0.0013521   0.0009991   0.0001955  -0.0006143
    8  -0.0018096   0.0001770   0.0014477   0.0007332   0.0001988  -0.0004073
    9  -0.0007862   0.0000112   0.0009340  -0.0007029   0.0003232   0.0000929
   10   0.0023300   0.0015588  -0.0007337   0.0008273  -0.0005668  -0.0004445
   11  -0.0022997   0.0013178   0.0021312  -0.0012609   0.0007852  -0.0005032
   12  -0.0003914   0.0007508   0.0006274  -0.0010137  -0.0004569   0.0014639
   13  -0.0196529   0.0069017   0.0157469   0.0073875  -0.0017008  -0.0052440
   14  -0.0127302   0.0038888   0.0118313  -0.0101054  -0.0003435   0.0047599
   15  -0.0119772   0.0026534   0.0086048   0.0364322  -0.0029095  -0.0109923
   16  -0.2510701  -0.1578147  -0.0911862  -0.0767375   0.0110227  -0.0457391
   17  -0.1640350  -0.2195399  -0.0799097   0.0092871  -0.0952619   0.0892850
   18  -0.1009437  -0.0867184  -0.1279454  -0.0403674   0.0911224  -0.4596519
   19   0.0000273   0.0000105   0.0000095  -0.0000202  -0.0000074  -0.0000011
   20   0.0000074  -0.0000050   0.0000092  -0.0000002  -0.0000052   0.0000012
   21   0.0000017  -0.0000053  -0.0000221   0.0000102   0.0000049   0.0000012
   22  -0.0004217   0.0001839   0.0003224  -0.0000577   0.0000407  -0.0000004
   23  -0.0001985   0.0000537   0.0001388  -0.0000090   0.0000138  -0.0000100
   24   0.0003329  -0.0001315  -0.0002458   0.0000609  -0.0000326  -0.0000039
   25  -0.0000574   0.0000058   0.0000575   0.0000304   0.0000207  -0.0000190
   26  -0.0000410   0.0000123   0.0000308  -0.0000202   0.0000053   0.0000160
   27  -0.0000055   0.0000136   0.0000011  -0.0000212  -0.0000162  -0.0000002
   28  -0.0002531  -0.0000184   0.0003619  -0.0001749   0.0000842   0.0000471
   29   0.0004438  -0.0000584  -0.0003983   0.0000523  -0.0001905  -0.0001021
   30   0.0001077  -0.0000287  -0.0000289  -0.0000767  -0.0000347  -0.0000172
   31   0.0002342   0.0000419  -0.0002521  -0.0005130   0.0001362   0.0001700
   32   0.0003957  -0.0001718  -0.0002300   0.0002256  -0.0000993  -0.0000815
   33  -0.0001075  -0.0000172   0.0000013   0.0003066  -0.0001284  -0.0000346
   34  -0.0002363  -0.0002794   0.0000228   0.0000016  -0.0000136   0.0000052
   35  -0.0002989   0.0001297   0.0002289   0.0002179  -0.0000149   0.0000216
   36  -0.0000285   0.0000257  -0.0000489  -0.0000152  -0.0000191   0.0000135
   37   0.0010547   0.0002404  -0.0008394  -0.0065084   0.0003749   0.0028956
   38   0.0001221   0.0001297  -0.0002079   0.0011744   0.0009768  -0.0003201
   39  -0.0001673  -0.0000084   0.0002823   0.0041800   0.0000905  -0.0003513
   40   0.0147004  -0.0299242   0.0024794  -0.0012627   0.0034879   0.0020027
   41   0.0157671  -0.0226654   0.0056085   0.0003113  -0.0034344  -0.0058528
   42   0.0083378  -0.0188254   0.0029406  -0.0161110   0.0416319   0.0052203
   43   0.2561356   0.1670855   0.1012033  -0.0006771  -0.0030891   0.0022487
   44   0.1670855   0.2267352   0.0943801   0.0107864   0.0099247   0.0085968
   45   0.1012033   0.0943801   0.1265900  -0.0296143  -0.0339098  -0.0109295
   46  -0.0006771   0.0107864  -0.0296143   0.0748337  -0.0101117   0.0462629
   47  -0.0030891   0.0099247  -0.0339098  -0.0101117   0.0871769  -0.0960465
   48   0.0022487   0.0085968  -0.0109295   0.0462629  -0.0960465   0.4749313
 **********************************************************************
 **                                                                  **
 **                       VIBRATIONAL ANALYSIS                       **
 **                       --------------------                       **
 **                                                                  **
 **        VIBRATIONAL FREQUENCIES (CM**-1) AND NORMAL MODES         **
 **     FORCE CONSTANTS (mDYN/ANGSTROM) AND REDUCED MASSES (AMU)     **
 **                  INFRARED INTENSITIES (KM/MOL)                   **
 **                                                                  **
 **********************************************************************


 Mode:                 1                      2                      3
 Frequency:      -537.09                 219.39                 233.94
 Force Cnst:      0.3791                 0.0329                 0.0632
 Red. Mass:       2.2308                 1.1594                 1.9597
 IR Active:          YES                    YES                    YES
 IR Intens:        0.431                  0.171                  2.242
 Raman Active:       YES                    YES                    YES
               X      Y      Z        X      Y      Z        X      Y      Z
 C         -0.030 -0.009  0.020   -0.022  0.040 -0.037    0.100 -0.018  0.023
 C         -0.160  0.075 -0.129    0.019 -0.026  0.026    0.102  0.001  0.041
 C         -0.004 -0.054 -0.057    0.009 -0.021  0.033    0.084  0.013 -0.060
 C         -0.005 -0.067  0.061   -0.002 -0.026  0.044   -0.033  0.009  0.065
 C          0.152  0.061  0.139    0.018 -0.016  0.013   -0.127 -0.016  0.013
 C          0.025  0.005 -0.025   -0.013  0.029 -0.050   -0.161  0.046 -0.054
 H         -0.002 -0.021  0.026    0.155 -0.063  0.381    0.098 -0.013 -0.033
 H         -0.088 -0.031  0.092   -0.096 -0.299 -0.472    0.099  0.011  0.080
 H          0.051 -0.023  0.013   -0.198  0.620 -0.152    0.114 -0.096  0.039
 H         -0.284  0.168 -0.141    0.038 -0.041  0.027    0.166 -0.089  0.066
 H          0.574 -0.226 -0.227    0.038 -0.027  0.027    0.672 -0.289 -0.338
 H         -0.323 -0.143  0.140   -0.016 -0.040  0.056   -0.083 -0.033  0.101
 H          0.301  0.162  0.152    0.056 -0.031 -0.003   -0.125 -0.097 -0.024
 H          0.008 -0.004 -0.039    0.020  0.044 -0.060   -0.143  0.051 -0.115
 H          0.080 -0.012 -0.095   -0.015  0.060 -0.098   -0.147  0.041 -0.076
 H         -0.060 -0.005 -0.018   -0.081  0.010 -0.048   -0.237  0.084 -0.036
 TransDip   0.014 -0.012 -0.010   -0.002  0.001 -0.013    0.025 -0.034 -0.022

 Mode:                 4                      5                      6
 Frequency:       261.06                 327.09                 350.08
 Force Cnst:      0.0567                 0.1324                 0.1194
 Red. Mass:       1.4121                 2.1006                 1.6530
 IR Active:          YES                    YES                    YES
 IR Intens:        0.105                  0.271                  0.260
 Raman Active:       YES                    YES                    YES
               X      Y      Z        X      Y      Z        X      Y      Z
 C          0.012  0.060  0.070   -0.126  0.126 -0.052   -0.095 -0.085 -0.070
 C         -0.033 -0.023 -0.025    0.014 -0.108  0.086    0.001  0.001  0.090
 C          0.003 -0.034 -0.049    0.039 -0.108  0.010    0.007  0.007  0.029
 C         -0.019 -0.054 -0.030    0.005 -0.058  0.021    0.090  0.074 -0.023
 C         -0.030 -0.059 -0.056    0.047 -0.050  0.027    0.043  0.056  0.066
 C          0.048  0.075  0.050    0.033  0.139 -0.053   -0.043 -0.032 -0.047
 H         -0.008  0.062  0.182   -0.400  0.260 -0.306   -0.051 -0.097 -0.192
 H         -0.003  0.036  0.057    0.112  0.447  0.024   -0.065 -0.087 -0.135
 H          0.093  0.160  0.037   -0.167 -0.167  0.021   -0.273 -0.157 -0.032
 H         -0.090 -0.037 -0.005    0.051 -0.166  0.100    0.077 -0.015  0.077
 H          0.065 -0.053 -0.067    0.031 -0.161 -0.034    0.085 -0.105 -0.070
 H         -0.028 -0.074 -0.014    0.061 -0.004 -0.028    0.236  0.182 -0.117
 H         -0.054 -0.097 -0.067    0.116 -0.055  0.008    0.104  0.117  0.079
 H         -0.059  0.006 -0.297    0.194  0.217 -0.020   -0.245 -0.146 -0.392
 H          0.062 -0.204  0.501   -0.059  0.304 -0.157    0.134 -0.363  0.184
 H          0.248  0.607  0.156   -0.098  0.038 -0.063   -0.037  0.412  0.059
 TransDip   0.004  0.003  0.009    0.005  0.016 -0.002    0.012 -0.010 -0.003

 Mode:                 7                      8                      9
 Frequency:       414.32                 564.27                 714.03
 Force Cnst:      0.1920                 0.4000                 0.6402
 Red. Mass:       1.8981                 2.1322                 2.1313
 IR Active:          YES                    YES                    YES
 IR Intens:        0.839                  6.384                 11.918
 Raman Active:       YES                    YES                    YES
               X      Y      Z        X      Y      Z        X      Y      Z
 C         -0.097 -0.086  0.030   -0.062  0.005  0.009   -0.108 -0.050  0.063
 C         -0.098  0.072  0.030    0.046  0.002  0.105    0.000  0.048  0.059
 C          0.043  0.053 -0.003   -0.113  0.060  0.006    0.240 -0.014 -0.131
 C          0.122 -0.018 -0.054   -0.085  0.044  0.067   -0.000  0.021  0.025
 C         -0.066 -0.078 -0.061    0.011  0.054 -0.139   -0.010  0.023 -0.035
 C          0.047  0.069  0.058    0.157 -0.085 -0.032    0.005  0.005 -0.020
 H          0.053 -0.154  0.049   -0.088  0.020 -0.056    0.035 -0.109 -0.041
 H         -0.193 -0.221 -0.010    0.011  0.037 -0.081   -0.174 -0.150  0.017
 H         -0.165 -0.036  0.027   -0.203 -0.014  0.031   -0.286 -0.115  0.102
 H         -0.096  0.088  0.024    0.118 -0.089  0.128   -0.074 -0.025  0.100
 H          0.424 -0.086 -0.136    0.402 -0.289 -0.311   -0.353  0.269  0.131
 H          0.469  0.061 -0.134   -0.286 -0.126  0.217   -0.601 -0.234  0.260
 H         -0.108 -0.113 -0.065   -0.020 -0.052 -0.177   -0.075 -0.036 -0.052
 H          0.235  0.168  0.242    0.053 -0.129  0.111    0.000  0.003 -0.021
 H         -0.137  0.302  0.010    0.163 -0.140  0.051    0.002  0.002 -0.010
 H          0.099 -0.141  0.002    0.401 -0.168 -0.080    0.016  0.013 -0.019
 TransDip   0.001 -0.015 -0.025    0.044 -0.060 -0.031   -0.074  0.013  0.082

 Mode:                10                     11                     12
 Frequency:       857.65                 927.97                1012.07
 Force Cnst:      0.9003                 1.7814                 1.0928
 Red. Mass:       2.0775                 3.5111                 1.8107
 IR Active:          YES                    YES                    YES
 IR Intens:        8.632                  4.123                  3.756
 Raman Active:       YES                    YES                    YES
               X      Y      Z        X      Y      Z        X      Y      Z
 C          0.030  0.011 -0.021   -0.068 -0.029 -0.011    0.141  0.035 -0.048
 C          0.014  0.001  0.019   -0.053 -0.144 -0.149   -0.106  0.093  0.090
 C         -0.136  0.012  0.026    0.104 -0.169  0.135    0.035 -0.123  0.013
 C          0.243  0.019 -0.090    0.136  0.177  0.139   -0.024  0.010  0.047
 C          0.002 -0.027 -0.005   -0.057  0.150 -0.139   -0.033  0.001 -0.024
 C         -0.068  0.017  0.051   -0.062  0.022 -0.005    0.004  0.000 -0.024
 H         -0.004  0.029 -0.067   -0.250  0.029  0.259    0.300 -0.010 -0.285
 H          0.092  0.040 -0.090   -0.067  0.072  0.153    0.150 -0.049 -0.196
 H         -0.060  0.005 -0.010    0.349  0.108 -0.091   -0.163 -0.071  0.007
 H         -0.021  0.020  0.016   -0.038  0.054 -0.234   -0.295  0.262  0.076
 H         -0.164 -0.216 -0.169    0.032 -0.248  0.062   -0.405 -0.441 -0.235
 H         -0.560 -0.497  0.372   -0.003  0.164  0.148    0.066  0.139 -0.065
 H         -0.065  0.004  0.019   -0.055 -0.051 -0.226    0.031 -0.031 -0.051
 H          0.035  0.069  0.032   -0.211 -0.032  0.233    0.023  0.013  0.065
 H         -0.162  0.105  0.072   -0.062 -0.059  0.125   -0.068  0.017  0.084
 H         -0.110  0.046  0.065    0.310 -0.107 -0.075    0.182 -0.024 -0.050
 TransDip  -0.035 -0.072  0.050   -0.058  0.002 -0.029   -0.050  0.033 -0.017

 Mode:                13                     14                     15
 Frequency:      1038.65                1128.29                1173.51
 Force Cnst:      1.1686                 1.0354                 1.0007
 Red. Mass:       1.8385                 1.3805                 1.2334
 IR Active:          YES                    YES                    YES
 IR Intens:        1.913                  3.057                  2.026
 Raman Active:       YES                    YES                    YES
               X      Y      Z        X      Y      Z        X      Y      Z
 C         -0.021  0.002 -0.023    0.090 -0.011 -0.005   -0.015  0.045 -0.064
 C         -0.020  0.003 -0.032   -0.097 -0.064  0.027   -0.013  0.008  0.044
 C         -0.004 -0.001  0.016   -0.004 -0.019  0.023   -0.006  0.000  0.011
 C          0.023  0.121  0.022    0.032  0.039 -0.029    0.006  0.011 -0.009
 C         -0.106 -0.089  0.105   -0.065  0.017  0.015   -0.007 -0.033  0.044
 C          0.156 -0.030 -0.042    0.037 -0.006 -0.031   -0.028 -0.045 -0.076
 H          0.020 -0.024  0.101   -0.009  0.046 -0.145    0.222 -0.060  0.015
 H         -0.138 -0.032  0.149    0.283  0.068 -0.236   -0.294 -0.099  0.239
 H          0.227  0.020 -0.057   -0.172 -0.003  0.021    0.290 -0.054 -0.079
 H          0.061  0.039 -0.065   -0.248 -0.145  0.094    0.193 -0.163  0.072
 H         -0.151 -0.208 -0.159    0.447  0.450  0.406    0.058  0.095  0.091
 H         -0.265  0.236 -0.049   -0.267  0.113 -0.081   -0.193  0.097 -0.067
 H         -0.350 -0.245  0.104   -0.104 -0.005  0.017    0.252  0.108  0.054
 H          0.294  0.008 -0.339    0.063  0.001 -0.042    0.221  0.077  0.065
 H          0.220  0.035 -0.256    0.022  0.002 -0.012   -0.377  0.115  0.301
 H         -0.259  0.096  0.026    0.069  0.010 -0.034    0.379  0.042 -0.102
 TransDip  -0.042 -0.015 -0.003   -0.048 -0.029  0.003    0.001 -0.013  0.044

 Mode:                16                     17                     18
 Frequency:      1193.96                1224.33                1272.44
 Force Cnst:      1.2384                 1.1982                 1.7799
 Red. Mass:       1.4744                 1.3567                 1.8658
 IR Active:          YES                    YES                    YES
 IR Intens:        4.314                  7.132                  4.616
 Raman Active:       YES                    YES                    YES
               X      Y      Z        X      Y      Z        X      Y      Z
 C         -0.022 -0.022  0.072   -0.009  0.097 -0.026    0.023 -0.089 -0.094
 C          0.082  0.030 -0.056    0.003  0.000  0.021   -0.126  0.027  0.122
 C         -0.016 -0.002  0.023   -0.031 -0.064  0.035    0.035  0.076 -0.036
 C         -0.018  0.056 -0.002    0.012 -0.012 -0.025   -0.008  0.013  0.009
 C          0.096 -0.083 -0.018    0.060  0.002 -0.061    0.094 -0.070 -0.040
 C         -0.060 -0.032  0.014   -0.014  0.051  0.064   -0.035  0.043  0.047
 H         -0.138  0.028 -0.004    0.443 -0.087 -0.152   -0.298  0.034  0.222
 H          0.123  0.032 -0.127   -0.383 -0.204  0.193    0.211  0.183  0.012
 H         -0.288  0.014  0.101    0.005 -0.163  0.032    0.521  0.193 -0.226
 H         -0.074  0.243 -0.113    0.034 -0.101  0.063    0.080 -0.135  0.150
 H          0.058 -0.051 -0.018    0.178  0.050  0.133   -0.062  0.022 -0.084
 H         -0.367  0.494 -0.338   -0.185  0.143 -0.150   -0.218  0.156 -0.087
 H          0.111 -0.306 -0.114   -0.107 -0.260 -0.145    0.137 -0.261 -0.137
 H          0.105  0.051  0.032   -0.276 -0.067  0.050   -0.224 -0.037  0.091
 H         -0.259  0.097  0.153    0.257 -0.110 -0.171    0.133 -0.082 -0.061
 H         -0.005  0.042  0.030   -0.210 -0.074  0.060   -0.082 -0.073  0.029
 TransDip   0.066 -0.000 -0.006    0.046 -0.072 -0.004   -0.063 -0.010  0.027

 Mode:                19                     20                     21
 Frequency:      1284.80                1333.78                1435.24
 Force Cnst:      1.5981                 2.1817                 1.6982
 Red. Mass:       1.6432                 2.0815                 1.3992
 IR Active:          YES                    YES                    YES
 IR Intens:        6.278                  0.504                 58.072
 Raman Active:       YES                    YES                    YES
               X      Y      Z        X      Y      Z        X      Y      Z
 C         -0.019 -0.022  0.027    0.034  0.048  0.028    0.011  0.007  0.027
 C          0.058  0.056 -0.020   -0.057 -0.134 -0.091   -0.042  0.005 -0.058
 C         -0.013 -0.013  0.022   -0.006  0.146 -0.065    0.049  0.055  0.078
 C          0.039 -0.063 -0.050    0.015  0.110  0.081    0.018 -0.043  0.026
 C         -0.098 -0.049  0.099    0.040 -0.103  0.067   -0.055 -0.044 -0.091
 C          0.011  0.118 -0.070   -0.028  0.038 -0.019    0.018 -0.001  0.042
 H         -0.102  0.010  0.044    0.200 -0.010 -0.171    0.032  0.005 -0.065
 H          0.051  0.033 -0.021   -0.060 -0.109 -0.054    0.034 -0.013 -0.051
 H         -0.050  0.029  0.022   -0.264 -0.125  0.103   -0.122 -0.022  0.050
 H          0.126  0.120 -0.062   -0.220 -0.460  0.061    0.186 -0.379  0.045
 H         -0.058 -0.036  0.016   -0.202 -0.005 -0.218   -0.080 -0.173 -0.108
 H         -0.214  0.088 -0.169    0.232 -0.027  0.214   -0.253  0.222 -0.182
 H          0.094 -0.001  0.082    0.220 -0.311 -0.050    0.339  0.610  0.108
 H         -0.424 -0.072  0.254   -0.158 -0.014  0.131    0.002 -0.017 -0.080
 H          0.341 -0.247 -0.057    0.063 -0.092  0.033    0.086 -0.002 -0.082
 H          0.497 -0.249 -0.215    0.215 -0.105 -0.079   -0.197  0.011  0.070
 TransDip  -0.074 -0.020  0.025   -0.015 -0.002 -0.017   -0.218  0.011 -0.110

 Mode:                22                     23                     24
 Frequency:      1472.78                1551.28                1660.57
 Force Cnst:      1.9010                 2.8650                 3.4958
 Red. Mass:       1.4875                 2.0207                 2.1517
 IR Active:          YES                    YES                    YES
 IR Intens:        7.165                 19.977                  6.250
 Raman Active:       YES                    YES                    YES
               X      Y      Z        X      Y      Z        X      Y      Z
 C         -0.014  0.018 -0.038   -0.000 -0.009  0.027    0.031  0.015  0.037
 C          0.048 -0.113  0.063   -0.008  0.113 -0.011   -0.116 -0.039 -0.007
 C          0.035  0.047  0.025   -0.059 -0.157 -0.065    0.100  0.021  0.134
 C         -0.047  0.064 -0.049   -0.023  0.164  0.009   -0.112  0.078 -0.148
 C         -0.022 -0.087 -0.029   -0.036 -0.123 -0.024    0.109 -0.061  0.007
 C          0.007  0.018  0.021    0.008  0.008  0.039   -0.032  0.016 -0.027
 H          0.068 -0.024  0.039   -0.011  0.002 -0.043    0.039  0.021 -0.051
 H         -0.120 -0.043  0.066    0.084  0.040 -0.051    0.047 -0.029 -0.064
 H          0.135 -0.043 -0.044   -0.055  0.040  0.024   -0.138 -0.030  0.069
 H         -0.505  0.599 -0.120    0.437  0.010 -0.049    0.602  0.124 -0.232
 H          0.118  0.005 -0.015    0.129  0.192  0.242    0.087 -0.181 -0.016
 H         -0.064 -0.091  0.079    0.227 -0.189  0.320   -0.018 -0.284  0.129
 H          0.318  0.336  0.094    0.591  0.037 -0.073   -0.461  0.080  0.200
 H         -0.069 -0.020 -0.002   -0.006 -0.008 -0.056   -0.033  0.023  0.029
 H          0.093 -0.043 -0.037    0.111 -0.038 -0.069   -0.023 -0.040  0.047
 H         -0.062 -0.048  0.015   -0.110 -0.037  0.045    0.135 -0.048 -0.061
 TransDip   0.059  0.055  0.029   -0.133  0.017  0.051   -0.021 -0.077  0.005

 Mode:                25                     26                     27
 Frequency:      1707.95                1745.56                1755.44
 Force Cnst:      2.5497                 2.5780                 2.6434
 Red. Mass:       1.4835                 1.4360                 1.4559
 IR Active:          YES                    YES                    YES
 IR Intens:       27.816                  9.515                  6.651
 Raman Active:       YES                    YES                    YES
               X      Y      Z        X      Y      Z        X      Y      Z
 C          0.013  0.022  0.024   -0.079  0.021  0.076   -0.092 -0.015  0.050
 C         -0.063 -0.085  0.022   -0.024 -0.051  0.022    0.046  0.047 -0.036
 C          0.028  0.056  0.005   -0.043  0.011 -0.089    0.041 -0.005  0.089
 C          0.008 -0.058 -0.042    0.049 -0.019  0.090   -0.049  0.018 -0.088
 C         -0.081  0.106  0.038    0.023 -0.024 -0.023   -0.009  0.021  0.022
 C          0.018 -0.032  0.028    0.001  0.013 -0.016   -0.039 -0.018  0.034
 H          0.065  0.006 -0.032    0.335 -0.126 -0.311    0.237 -0.132 -0.294
 H          0.020 -0.042 -0.092    0.207  0.049 -0.422    0.192  0.104 -0.300
 H         -0.034 -0.072  0.052    0.422 -0.027  0.027    0.435  0.102 -0.040
 H          0.402  0.301 -0.251    0.261  0.259 -0.181   -0.306 -0.282  0.182
 H         -0.050 -0.018 -0.063   -0.026  0.125 -0.015    0.021 -0.135 -0.001
 H         -0.069 -0.039 -0.074   -0.005  0.164 -0.036    0.012 -0.152  0.028
 H          0.527 -0.406 -0.335   -0.225  0.197  0.135    0.146 -0.171 -0.102
 H          0.088 -0.006 -0.037   -0.057 -0.010  0.035    0.169  0.066 -0.136
 H          0.017  0.058 -0.112   -0.023 -0.014  0.069    0.088 -0.010 -0.210
 H         -0.047  0.101  0.066   -0.025 -0.039 -0.026    0.210  0.044  0.022
 TransDip  -0.166  0.001 -0.031   -0.079 -0.056 -0.021   -0.080  0.008 -0.020

 Mode:                28                     29                     30
 Frequency:      1772.68                1831.08                1837.23
 Force Cnst:      2.3815                 2.0837                 2.0987
 Red. Mass:       1.2863                 1.0548                 1.0553
 IR Active:          YES                    YES                    YES
 IR Intens:        8.156                  1.810                  2.094
 Raman Active:       YES                    YES                    YES
               X      Y      Z        X      Y      Z        X      Y      Z
 C          0.023  0.008 -0.017    0.005 -0.055  0.018   -0.001  0.002 -0.001
 C         -0.010 -0.017  0.017   -0.004 -0.026  0.004    0.001  0.005 -0.001
 C         -0.020  0.000 -0.042   -0.002  0.008 -0.008   -0.003 -0.003 -0.001
 C          0.022 -0.011  0.043    0.005 -0.004  0.006   -0.001  0.009  0.004
 C          0.021 -0.010 -0.023   -0.001  0.002 -0.001    0.003 -0.026 -0.002
 C         -0.109 -0.010  0.077    0.000 -0.003 -0.000    0.011 -0.053 -0.023
 H         -0.056  0.035  0.090    0.122 -0.060 -0.493   -0.004  0.001  0.024
 H         -0.057 -0.027  0.079   -0.029  0.180  0.453    0.003 -0.007 -0.021
 H         -0.111 -0.038  0.010   -0.159  0.666 -0.124    0.008 -0.034  0.006
 H          0.079  0.107 -0.055    0.038  0.063 -0.044   -0.003 -0.002  0.004
 H         -0.003  0.060 -0.002   -0.002  0.010 -0.011    0.005  0.007  0.008
 H         -0.008  0.084 -0.024   -0.007  0.016 -0.009    0.003  0.001  0.014
 H         -0.103  0.109  0.055   -0.003  0.010  0.003   -0.034  0.049  0.043
 H          0.338  0.170 -0.351   -0.011 -0.006  0.022   -0.207 -0.106  0.499
 H          0.241 -0.055 -0.490   -0.000  0.014 -0.026   -0.018  0.230 -0.418
 H          0.559  0.027  0.014    0.010  0.032  0.007    0.119  0.654  0.124
 TransDip  -0.076  0.048 -0.018   -0.022  0.034 -0.013    0.036  0.025  0.015

 Mode:                31                     32                     33
 Frequency:      1882.27                1893.18                3073.09
 Force Cnst:      2.2052                 2.2356                 6.0686
 Red. Mass:       1.0564                 1.0587                 1.0907
 IR Active:          YES                    YES                    YES
 IR Intens:        2.026                  1.982                 28.070
 Raman Active:       YES                    YES                    YES
               X      Y      Z        X      Y      Z        X      Y      Z
 C         -0.047 -0.011 -0.045    0.002  0.001  0.001   -0.001  0.000  0.001
 C         -0.005 -0.004 -0.008   -0.000 -0.000  0.001   -0.016 -0.036 -0.077
 C          0.001  0.003  0.002   -0.000  0.001  0.001    0.001  0.004 -0.001
 C          0.000 -0.001  0.001    0.002 -0.003  0.002    0.001 -0.000  0.000
 C         -0.001  0.001  0.001   -0.004  0.002 -0.008   -0.001  0.002 -0.002
 C         -0.001 -0.000 -0.002   -0.048  0.004 -0.046   -0.000  0.000  0.000
 H          0.512 -0.266  0.429   -0.016  0.009 -0.013    0.000 -0.011  0.000
 H          0.321  0.528  0.172   -0.012 -0.014  0.001   -0.001  0.005 -0.004
 H         -0.237 -0.099  0.003    0.004  0.004 -0.000   -0.005 -0.002 -0.003
 H          0.009  0.002 -0.021   -0.000  0.006 -0.001    0.199  0.376  0.899
 H         -0.003 -0.002 -0.002    0.001  0.002  0.002   -0.003  0.006 -0.009
 H          0.000 -0.001  0.001   -0.003  0.002 -0.002   -0.004  0.000 -0.003
 H         -0.000 -0.005 -0.002    0.004  0.001 -0.017    0.010 -0.014  0.041
 H          0.014  0.007  0.014    0.508  0.275  0.478   -0.000 -0.000  0.001
 H          0.006 -0.015  0.010    0.321 -0.496  0.125   -0.000 -0.000  0.000
 H         -0.009  0.003 -0.000   -0.218  0.140  0.008   -0.000 -0.001  0.000
 TransDip   0.006  0.002  0.045    0.007  0.005  0.044    0.017 -0.083 -0.147

 Mode:                34                     35                     36
 Frequency:      3165.68                3224.87                3396.46
 Force Cnst:      6.4383                 6.5826                 7.2401
 Red. Mass:       1.0904                 1.0743                 1.0652
 IR Active:          YES                    YES                    YES
 IR Intens:       21.057                 10.208                  6.688
 Raman Active:       YES                    YES                    YES
               X      Y      Z        X      Y      Z        X      Y      Z
 C          0.000 -0.000  0.000   -0.000  0.000  0.000   -0.046 -0.056  0.004
 C          0.001  0.001  0.005   -0.000 -0.000 -0.000    0.002  0.000 -0.002
 C          0.001 -0.000  0.000    0.000  0.000 -0.000    0.000  0.000 -0.000
 C          0.001 -0.003 -0.001   -0.000  0.000  0.000   -0.000  0.000  0.000
 C         -0.016  0.038 -0.076   -0.002 -0.001  0.005    0.000  0.000  0.000
 C          0.001 -0.003  0.001    0.042 -0.065 -0.003    0.000  0.000  0.000
 H         -0.000  0.001  0.001   -0.000 -0.000 -0.000    0.360  0.870  0.057
 H         -0.000 -0.000  0.001    0.000  0.000 -0.000    0.179 -0.171  0.093
 H          0.000  0.001  0.000    0.000  0.000  0.000   -0.023 -0.046 -0.182
 H         -0.007 -0.020 -0.037    0.001  0.001  0.002    0.000  0.004  0.007
 H         -0.003 -0.001 -0.002    0.000 -0.000  0.000   -0.000  0.000 -0.001
 H         -0.002 -0.009 -0.012    0.001  0.001  0.002   -0.000 -0.000 -0.000
 H          0.197 -0.397  0.889   -0.008  0.021 -0.046   -0.000  0.000 -0.000
 H         -0.018  0.049 -0.002   -0.399  0.893 -0.053   -0.000  0.000  0.000
 H         -0.004 -0.009 -0.005   -0.078 -0.092 -0.042   -0.000 -0.000  0.000
 H         -0.004  0.000  0.001    0.013 -0.035  0.117   -0.000  0.000  0.000
 TransDip   0.025  0.083 -0.118    0.070 -0.075 -0.001   -0.061 -0.055  0.007

 Mode:                37                     38                     39
 Frequency:      3605.54                3621.65                3784.55
 Force Cnst:      8.3450                 8.3445                 9.2584
 Red. Mass:       1.0895                 1.0798                 1.0971
 IR Active:          YES                    YES                    YES
 IR Intens:        1.384                  1.535                 19.294
 Raman Active:       YES                    YES                    YES
               X      Y      Z        X      Y      Z        X      Y      Z
 C         -0.045  0.073 -0.010   -0.000  0.000  0.000    0.000  0.000  0.000
 C          0.001 -0.000 -0.001    0.000 -0.000  0.000    0.000 -0.001 -0.000
 C          0.000 -0.000  0.000    0.000  0.000  0.000    0.003  0.004  0.001
 C          0.000 -0.000 -0.000    0.000  0.000 -0.000   -0.004 -0.057 -0.069
 C          0.000  0.000  0.000    0.001  0.000 -0.001   -0.002  0.006 -0.001
 C          0.000  0.000  0.000   -0.048 -0.065 -0.004    0.000  0.000  0.001
 H         -0.109 -0.253 -0.023   -0.000 -0.001  0.000    0.001 -0.000 -0.001
 H          0.657 -0.571  0.345    0.003 -0.003  0.002   -0.002  0.001 -0.001
 H         -0.028 -0.035 -0.195   -0.000  0.000 -0.001   -0.000 -0.001 -0.005
 H          0.000  0.000 -0.000   -0.000  0.000  0.000   -0.002  0.002  0.001
 H         -0.000 -0.001  0.001    0.000 -0.000  0.000    0.004 -0.049  0.053
 H          0.000  0.001  0.000   -0.000  0.002  0.002    0.031  0.629  0.768
 H         -0.000 -0.000  0.000    0.001 -0.000 -0.000   -0.000 -0.008  0.007
 H          0.000 -0.001  0.000   -0.055  0.120 -0.013    0.001 -0.000 -0.000
 H         -0.003 -0.003 -0.002    0.645  0.586  0.357   -0.003 -0.003 -0.001
 H          0.000 -0.000  0.001   -0.036  0.058 -0.290   -0.000  0.002 -0.007
 TransDip  -0.015  0.035  0.002   -0.028 -0.028  0.006    0.092  0.010  0.106

 Mode:                40                     41                     42
 Frequency:      3797.83                3815.86                4077.46
 Force Cnst:      9.3558                 9.4357                10.7509
 Red. Mass:       1.1009                 1.0999                 1.0975
 IR Active:          YES                    YES                    YES
 IR Intens:        1.304                  1.159                 24.723
 Raman Active:       YES                    YES                    YES
               X      Y      Z        X      Y      Z        X      Y      Z
 C         -0.000 -0.000 -0.000   -0.025 -0.015 -0.087   -0.000 -0.000  0.000
 C         -0.000 -0.000  0.000   -0.001 -0.000  0.000   -0.002 -0.005 -0.001
 C          0.000  0.000  0.000    0.000  0.000  0.000   -0.004  0.058 -0.068
 C          0.000 -0.001 -0.000    0.000 -0.000 -0.000    0.003  0.004  0.010
 C         -0.001  0.000  0.000   -0.000  0.000  0.000    0.001  0.000 -0.000
 C         -0.027  0.007 -0.088    0.000  0.000  0.000   -0.000 -0.000 -0.000
 H          0.000  0.000  0.000    0.039  0.102  0.006    0.001  0.001 -0.000
 H          0.000 -0.000  0.000    0.156 -0.143  0.078   -0.001  0.000  0.000
 H          0.000  0.000  0.002    0.115  0.215  0.932    0.001 -0.000  0.001
 H          0.000 -0.000 -0.000   -0.002  0.002  0.008   -0.001  0.005  0.003
 H         -0.000 -0.000  0.000   -0.000  0.000 -0.000    0.023 -0.644  0.756
 H          0.000  0.006  0.007   -0.000  0.003  0.004    0.000 -0.038 -0.051
 H         -0.002 -0.002  0.009    0.000  0.000 -0.000   -0.001 -0.001  0.001
 H          0.024 -0.060  0.004   -0.000  0.000  0.000    0.001 -0.000 -0.001
 H          0.200  0.189  0.106   -0.000 -0.000 -0.000   -0.001  0.000  0.000
 H          0.103 -0.216  0.918   -0.000  0.000 -0.002    0.000  0.000 -0.000
 TransDip   0.014 -0.003 -0.033    0.012 -0.001 -0.032    0.089 -0.048  0.123

 STANDARD THERMODYNAMIC QUANTITIES AT   298.15 K  AND     1.00 ATM

   This Molecule has  1 Imaginary Frequencies
   Zero point vibrational energy:      102.414 kcal/mol

   Atom    1 Element C  Has Mass   12.00000
   Atom    2 Element C  Has Mass   12.00000
   Atom    3 Element C  Has Mass   12.00000
   Atom    4 Element C  Has Mass   12.00000
   Atom    5 Element C  Has Mass   12.00000
   Atom    6 Element C  Has Mass   12.00000
   Atom    7 Element H  Has Mass    1.00783
   Atom    8 Element H  Has Mass    1.00783
   Atom    9 Element H  Has Mass    1.00783
   Atom   10 Element H  Has Mass    1.00783
   Atom   11 Element H  Has Mass    1.00783
   Atom   12 Element H  Has Mass    1.00783
   Atom   13 Element H  Has Mass    1.00783
   Atom   14 Element H  Has Mass    1.00783
   Atom   15 Element H  Has Mass    1.00783
   Atom   16 Element H  Has Mass    1.00783
   Molecular Mass:    82.078300 amu
   Principal axes and moments of inertia in amu*Bohr^2:
                             1           2           3
    Eigenvalues --      271.74305   742.71225   804.05842
          X               0.99997     0.00017    -0.00778
          Y              -0.00016     1.00000     0.00089
          Z               0.00778    -0.00089     0.99997
   Rotational Symmetry Number is   1
   The Molecule is an Asymmetric Top
   Translational Enthalpy:        0.889 kcal/mol
   Rotational Enthalpy:           0.889 kcal/mol
   Vibrational Enthalpy:        104.397 kcal/mol
   gas constant (RT):             0.592 kcal/mol
   Translational Entropy:        39.129  cal/mol.K
   Rotational Entropy:           26.587  cal/mol.K
   Vibrational Entropy:          10.419  cal/mol.K

   Total Enthalpy:              106.767 kcal/mol
   Total Entropy:                76.135  cal/mol.K
Archival summary:
1\1\osmium\FREQ\HF\STO-3G\610\eric\MonApr2611:21:032021MonApr2611:21:032021\0\\#,FREQ,HF,STO-3G,\\0,1\C\H,1,1.14805\C,1,1.48053,2,112.581\H,3,1.07441,1,128.544,2,7.1223,0\C,3,1.38754,1,99.0006,2,-156.222,0\H,5,1.04422,3,131.345,1,-130.169,0\C,5,1.48618,3,97.5727,1,31.2632,0\H,7,1.16014,5,112.835,3,-156.241,0\C,1,1.58445,2,103.161,3,117.939,0\H,9,1.07724,1,113.302,2,173.109,0\H,9,1.0923,1,112.885,2,-66.3934,0\H,9,1.1403,1,113.75,2,50.639,0\C,7,1.59147,5,109.895,3,89.6149,0\H,13,1.07505,7,112.486,5,-65.18,0\H,13,1.09562,7,112.988,5,55.2571,0\H,13,1.1176,7,113.15,5,172.671,0\\HF=-230.028558\\@

 Total job time:  1.73s(wall), 1.72s(cpu) 
 Mon Apr 26 11:21:03 2021

        *************************************************************
        *                                                           *
        *  Thank you very much for using Q-Chem.  Have a nice day.  *
        *                                                           *
        *************************************************************


 
User input: 2 of 5 
 
                  Welcome to Q-Chem
     A Quantum Leap Into The Future Of Chemistry


 Q-Chem 5.3 (devel), Q-Chem, Inc., Pleasanton, CA (2020)

 Yihan Shao,  Zhengting Gan,  E. Epifanovsky,  A. T. B. Gilbert,  M. Wormit,  
 J. Kussmann,  A. W. Lange,  A. Behn,  Jia Deng,  Xintian Feng,  D. Ghosh,  
 M. Goldey,  P. R. Horn,  L. D. Jacobson,  I. Kaliman,  T. Kus,  A. Landau,  
 Jie Liu,  E. I. Proynov,  R. M. Richard,  R. P. Steele,  E. J. Sundstrom,  
 H. L. Woodcock III,  P. M. Zimmerman,  D. Zuev,  B. Alam,  B. Albrecht,  
 A. Aldossary,  E. Alguire,  S. A. Baeppler,  D. Barton,  Z. Benda,  
 Y. A. Bernard,  E. J. Berquist,  K. B. Bravaya,  H. Burton,  K. Carter-Fenk,  
 D. Casanova,  Chun-Min Chang,  Yunqing Chen,  A. Chien,  K. D. Closser,  
 M. P. Coons,  S. Coriani,  S. Dasgupta,  A. L. Dempwolff,  M. Diedenhofen,  
 Hainam Do,  R. G. Edgar,  Po-Tung Fang,  S. Faraji,  S. Fatehi,  
 Qingguo Feng,  J. Fosso-Tande,  J. Gayvert,  Qinghui Ge,  A. Ghysels,  
 G. Gidofalvi,  J. Gomes,  J. Gonthier,  S. Gulania,  A. Gunina,  D. Hait,  
 M. W. D. Hanson-Heine,  S. Hammes-Schiffer,  P. H. P. Harbach,  
 A. W. Hauser,  M. F. Herbst,  J. E. Herr,  E. G. Hohenstein,  Z. C. Holden,  
 S. Houck,  Kerwin Hui,  B. C. Huynh,  M. Ivanov,  T.-C. Jagau,  Hyunjun Ji,  
 B. Kaduk,  K. Khistyaev,  Jaehoon Kim,  P. Klunzinger,  K. Koh,  
 D. Kosenkov,  L. Koulias,  T. Kowalczyk,  C. M. Krauter,  A. Kunitsa,  
 Ka Un Lao,  A. Laurent,  K. V. Lawler,  Joonho Lee,  D. Lefrancois,  
 S. Lehtola,  D. S. Levine,  Yi-Pei Li,  You-Sheng Lin,  Fenglai Liu,  
 Kuan-Yu Liu,  E. Livshits,  M. Loipersberger,  A. Luenser,  A. Manjanath,  
 P. Manohar,  E. Mansoor,  S. F. Manzer,  Shan-Ping Mao,  Yuezhi Mao,  
 N. Mardirossian,  A. V. Marenich,  T. Markovich,  L. A. Martinez-Martinez,  
 S. A. Maurer,  N. J. Mayhall,  S. C. McKenzie,  J.-M. Mewes,  P. Morgante,  
 A. F. Morrison,  J. W. Mullinax,  K. Nanda,  T. S. Nguyen-Beck,  
 R. Olivares-Amaya,  K. J. Oosterbaan,  J. A. Parkhill,  S. K. Paul,  
 F. Pavosevic,  Zheng Pei,  T. M. Perrine,  F. Plasser,  P. Pokhilko,  
 S. Prager,  A. Prociuk,  E. Ramos,  B. Rana,  D. R. Rehn,  F. Rob,  
 E. Rossomme,  M. Scheurer,  M. Schneider,  N. Sergueev,  S. M. Sharada,  
 S. Sharma,  W. Skomorowski,  D. W. Small,  T. Stauch,  C. J. Stein,  
 T. Stein,  Yu-Chuan Su,  S. P. Veccham,  Zhen Tao,  A. J. W. Thom,  
 A. Tkatchenko,  T. Tsuchimochi,  N. M. Tubman,  L. Vogt,  M. L. Vidal,  
 O. Vydrov,  M. A. Watson,  J. Wenzel,  M. de Wergifosse,  T. A. Wesolowski,  
 A. White,  J. Witte,  A. Yamada,  Jun Yang,  K. Yao,  S. Yeganeh,  
 S. R. Yost,  Zhi-Qiang You,  A. Zech,  Igor Ying Zhang,  Xing Zhang,  
 Yan Zhao,  Ying Zhu,  B. R. Brooks,  G. K. L. Chan,  C. J. Cramer,  
 M. S. Gordon,  W. J. Hehre,  A. Klamt,  M. W. Schmidt,  C. D. Sherrill,  
 D. G. Truhlar,  A. Aspuru-Guzik,  R. Baer,  A. T. Bell,  N. A. Besley,  
 Jeng-Da Chai,  A. E. DePrince, III,  R. A. DiStasio Jr.,  A. Dreuw,  
 B. D. Dunietz,  T. R. Furlani,  Chao-Ping Hsu,  Yousung Jung,  Jing Kong,  
 D. S. Lambrecht,  WanZhen Liang,  C. Ochsenfeld,  V. A. Rassolov,  
 L. V. Slipchenko,  J. E. Subotnik,  T. Van Voorhis,  J. M. Herbert,  
 A. I. Krylov,  P. M. W. Gill,  M. Head-Gordon

 Contributors to earlier versions of Q-Chem not listed above: 
 R. D. Adamson,  B. Austin,  J. Baker,  G. J. O. Beran,  K. Brandhorst,  
 S. T. Brown,  E. F. C. Byrd,  A. K. Chakraborty,  C.-L. Cheng,  
 Siu Hung Chien,  D. M. Chipman,  D. L. Crittenden,  H. Dachsel,  
 R. J. Doerksen,  A. D. Dutoi,  L. Fusti-Molnar,  W. A. Goddard III,  
 A. Golubeva-Zadorozhnaya,  S. R. Gwaltney,  G. Hawkins,  A. Heyden,  
 S. Hirata,  G. Kedziora,  F. J. Keil,  C. Kelley,  Jihan Kim,  R. A. King,  
 R. Z. Khaliullin,  P. P. Korambath,  W. Kurlancheek,  A. M. Lee,  M. S. Lee,  
 S. V. Levchenko,  Ching Yeh Lin,  D. Liotard,  R. C. Lochan,  I. Lotan,  
 P. E. Maslen,  N. Nair,  D. P. O'Neill,  D. Neuhauser,  E. Neuscamman,  
 C. M. Oana,  R. Olson,  B. Peters,  R. Peverati,  P. A. Pieniazek,  
 Y. M. Rhee,  J. Ritchie,  M. A. Rohrdanz,  E. Rosta,  N. J. Russ,  
 H. F. Schaefer III,  N. E. Schultz,  N. Shenvi,  A. C. Simmonett,  A. Sodt,  
 D. Stuck,  K. S. Thanthiriwatte,  V. Vanovschi,  Tao Wang,  A. Warshel,  
 C. F. Williams,  Q. Wu,  X. Xu,  W. Zhang

 Please cite Q-Chem as follows:
 Y. Shao et al., Mol. Phys. 113, 184-215 (2015)
 DOI: 10.1080/00268976.2014.952696

 Q-Chem 5.3.2 for Intel X86 EM64T Linux

 Parts of Q-Chem use Armadillo 9.800.1 (Horizon Scraper).
 http://arma.sourceforge.net/

Compilation information
-----------------------

 SVN revision             | 35976
 SVN branch               | trunk
 Last SVN revision        | 35971
 Last SVN author          | tarek.scheele
 Hostname                 | osmium
 User                     | eric
 System                   | Linux-5.8.14-arch1-1
 Processor                | x86_64
 Compiler                 | GNU
 C compiler version       | 9.3.0
 CXX compiler version     | 9.3.0
 Fortran compiler version | 9.3.0
 Configuration time       | 2021-02-25 00:06:41


 Q-Chem begins on Mon Apr 26 11:21:03 2021  

Host: osmium
0

     Scratch files written to /tmp/qchem/ts_30//
Processing $rem in /home/eric/data/opt/apps/qchem/archive/r35971-g9.3.0-openblas/config/preferences:
Processing $rem in /home/eric/.qchemrc:
The previous job contains 0 fragments, simply inherited here

Checking the input file for inconsistencies... 	...done.

--------------------------------------------------------------
[...]
                    Cartesian Multipole Moments
 -----------------------------------------------------------------
    Charge (ESU x 10^10)
                 0.0000
    Dipole Moment (Debye)
         X       0.0000      Y      -0.4413      Z      -0.0000
       Tot       0.4413
    Quadrupole Moments (Debye-Ang)
        XX     -36.3644     XY       0.0002     YY     -36.2239
        XZ       0.4851     YZ      -0.0003     ZZ     -35.7457
    Octopole Moments (Debye-Ang^2)
       XXX       0.0003    XXY      -1.2945    XYY       0.0006
       YYY      -0.4384    XXZ       0.0002    XYZ       0.1506
       YYZ      -0.0000    XZZ      -0.0003    YZZ       1.3302
       ZZZ       0.0002
    Hexadecapole Moments (Debye-Ang^3)
      XXXX    -373.4186   XXXY       0.0000   XXYY    -104.9316
      XYYY       0.0014   YYYY    -226.7910   XXXZ       2.7577
      XXYZ       0.0009   XYYZ       1.8410   YYYZ      -0.0017
      XXZZ     -87.1324   XYZZ       0.0008   YYZZ     -59.7372
      XZZZ       0.9180   YZZZ      -0.0007   ZZZZ    -136.9967
 -----------------------------------------------------------------
 Calculating analytic gradient of the SCF energy
 Gradient of SCF Energy
            1           2           3           4           5           6
    1   0.0000118   0.0000017  -0.0000034  -0.0000207  -0.0000010   0.0000208
    2  -0.0000066   0.0000434  -0.0000427   0.0000063  -0.0000131   0.0000080
    3   0.0000001   0.0000002   0.0000133  -0.0000294   0.0000260  -0.0000096
            7           8           9          10          11          12
    1   0.0000002   0.0000049  -0.0000136  -0.0000031   0.0000029   0.0000105
    2   0.0000033   0.0000004  -0.0000017   0.0000056   0.0000015  -0.0000124
    3   0.0000047  -0.0000038  -0.0000009   0.0000073  -0.0000015  -0.0000074
           13          14          15          16
    1  -0.0000032  -0.0000051   0.0000005  -0.0000032
    2   0.0000030   0.0000057  -0.0000047   0.0000038
    3  -0.0000012   0.0000030  -0.0000001  -0.0000006
 Max gradient component =       4.343E-05
 RMS gradient           =       1.264E-05
 Gradient time:  CPU 0.08 s  wall 0.08 s
 Geometry Optimization Parameters
   NAtoms,    NIC,     NZ,  NCons,   NDum,   NFix, NCnnct, MaxDiis
       16      95       0       0       0       0       0       0


** GEOMETRY OPTIMIZATION IN DELOCALIZED INTERNAL COORDINATES **
   Searching for a Minimum

   Optimization Cycle:   1

                       Coordinates (Angstroms)
     ATOM                X               Y               Z
      1  C        -1.7160487606   -0.8348615084    0.3980260414
      2  C        -0.8591446868   -0.1121929053   -0.6540668471
      3  C        -0.4145319821    1.2107497926   -0.5566088568
      4  C         0.4147482994    1.2106343578    0.5567232906
      5  C         0.8590736514   -0.1124578326    0.6541200699
      6  C         1.7159331435   -0.8349703483   -0.3981360957
      7  H        -1.4402463146   -1.8832217598    0.4906183029
      8  H        -2.7595761222   -0.8053773943    0.0831726194
      9  H        -1.6419201055   -0.3683804708    1.3742360905
     10  H        -1.0873400646   -0.5109788402   -1.6469511481
     11  H        -0.5746911802    1.9876745853   -1.2942748578
     12  H         0.5752470882    1.9874742675    1.2943835496
     13  H         1.0871645004   -0.5114048446    1.6469688425
     14  H         1.4402415743   -1.8833691357   -0.4906179650
     15  H         2.7595437406   -0.8053279042   -0.0835608805
     16  H         1.6413988944   -0.3684978381   -1.3743201668
   Point Group: c1    Number of degrees of freedom:    42


   Energy is   -230.065573908


 Attempting to generate delocalized internal coordinates
 Initial Hessian constructed with Jon Baker's OPTIMIZE code

 42 Hessian modes will be used to form the next step
  Hessian Eigenvalues:
     0.004237    0.004239    0.016967    0.016967    0.022526    0.022532
     0.023886    0.023890    0.023962    0.068301    0.068311    0.072811
     0.072815    0.147809    0.147817    0.158015    0.158019    0.160000
     0.160000    0.160000    0.160000    0.160000    0.160000    0.220153
     0.220154    0.223990    0.223990    0.287541    0.287553    0.343494
     0.343500    0.347671    0.347676    0.350472    0.350472    0.354589
     0.354590    0.356054    0.356071    0.457698    0.457775    0.476261

 Minimum search - taking simple RFO step
 Searching for Lamda that Minimizes Along All modes
 Value Taken    Lamda =  -0.00000008
 Step Taken.  Stepsize is  0.003316

                             Maximum     Tolerance    Cnvgd?
         Gradient           0.000034      0.000300     YES
         Displacement       0.001722      0.001200      NO
         Energy change     *********      0.000001      NO


 New Cartesian Coordinates Obtained by Inverse Iteration

 Displacement from previous Coordinates is:  0.005640
 ----------------------------------------------------------------
             Standard Nuclear Orientation (Angstroms)
    I     Atom           X                Y                Z
 ----------------------------------------------------------------
    1      C      -1.7155222787    -0.8350053990     0.3978744566
    2      C      -0.8588952053    -0.1121272691    -0.6542991682
    3      C      -0.4145089324     1.2109364104    -0.5567348108
    4      C       0.4146371471     1.2108884182     0.5567199774
    5      C       0.8588175361    -0.1122442922     0.6542034708
    6      C       1.7154919689    -0.8351253088    -0.3979333286
    7      H      -1.4402729223    -1.8835989650     0.4895146563
    8      H      -2.7592835675    -0.8046701211     0.0838595828
    9      H      -1.6402856903    -0.3692454488     1.3743481602
   10      H      -1.0870938968    -0.5108810446    -1.6472092752
   11      H      -0.5747729884     1.9878776184    -1.2943571440
   12      H       0.5749020567     1.9877466392     1.2944387767
   13      H       1.0867860615    -0.5111655595     1.6470955234
   14      H       1.4399393926    -1.8836089002    -0.4899461425
   15      H       2.7591564459    -0.8052122540    -0.0835643609
   16      H       1.6407565487    -0.3690723029    -1.3742983852
 ----------------------------------------------------------------
 Molecular Point Group                 C1    NOp =  1
 Largest Abelian Subgroup              C1    NOp =  1
 Nuclear Repulsion Energy =         231.01940733 hartrees
 There are       23 alpha and       23 beta electrons
 Applying Cartesian multipole field
    Component          Value
    ---------          -----
     (2,0,0)        1.00000E-11
     (0,2,0)        2.00000E-11
     (0,0,2)       -3.00000E-11
 Nucleus-field energy     =     0.0000000032 hartrees
 Requested basis set is STO-3G
 There are 22 shells and 40 basis functions
 A cutoff of  1.0D-11 yielded    243 shell pairs
 There are       846 function pairs
 Smallest overlap matrix eigenvalue = 1.77E-01
 Guess MOs from SCF MO coefficient file

 -----------------------------------------------------------------------
  General SCF calculation program by
  Eric Jon Sundstrom, Paul Horn, Yuezhi Mao, Dmitri Zuev, Alec White,
  David Stuck, Shaama M.S., Shane Yost, Joonho Lee, David Small,
  Daniel Levine, Susi Lehtola, Hugh Burton, Evgeny Epifanovsky,
  Bang C. Huynh
 -----------------------------------------------------------------------
 Hartree-Fock
 A restricted SCF calculation will be
 performed using DIIS
 SCF converges when DIIS error is below 1.0e-08
 ---------------------------------------
  Cycle       Energy         DIIS error
 ---------------------------------------
    1    -230.0655734196      2.94e-05  
    2    -230.0655737957      9.37e-06  
    3    -230.0655738395      4.67e-07  
    4    -230.0655738397      2.04e-07  
    5    -230.0655738396      8.80e-08  
    6    -230.0655738396      2.34e-08  
    7    -230.0655738397      8.68e-09  Convergence criterion met
 ---------------------------------------
 SCF time:   CPU 0.16s  wall 1.00s 
 SCF   energy in the final basis set =     -230.0655738397
 Total energy in the final basis set =     -230.0655738397

 --------------------------------------------------------------

                    Orbital Energies (a.u.)
 --------------------------------------------------------------

 Alpha MOs
 -- Occupied --
-11.0430 -11.0430 -11.0298 -11.0295 -11.0054 -11.0051  -1.0770  -0.9591
 -0.9200  -0.8375  -0.7390  -0.6530  -0.6292  -0.5728  -0.5475  -0.5245
 -0.5183  -0.4899  -0.4714  -0.4552  -0.4359  -0.2753  -0.2384
 -- Virtual --
  0.2535   0.3146   0.6206   0.6479   0.6644   0.6777   0.6979   0.7204
  0.7277   0.7319   0.7611   0.7618   0.7805   0.8234   0.8803   0.9194
  1.1209
 --------------------------------------------------------------

          Ground-State Mulliken Net Atomic Charges

     Atom                 Charge (a.u.)
  ----------------------------------------
      1 C                    -0.172836
      2 C                    -0.024279
      3 C                    -0.077465
      4 C                    -0.077488
      5 C                    -0.024263
      6 C                    -0.172839
      7 H                     0.060647
      8 H                     0.058018
      9 H                     0.066702
     10 H                     0.036523
     11 H                     0.052691
     12 H                     0.052695
     13 H                     0.036523
     14 H                     0.060648
     15 H                     0.058020
     16 H                     0.066704
  ----------------------------------------
  Sum of atomic charges =     0.000000

 -----------------------------------------------------------------
                    Cartesian Multipole Moments
 -----------------------------------------------------------------
    Charge (ESU x 10^10)
                 0.0000
    Dipole Moment (Debye)
         X       0.0000      Y      -0.4413      Z       0.0001
       Tot       0.4413
    Quadrupole Moments (Debye-Ang)
        XX     -36.3669     XY      -0.0001     YY     -36.2234
        XZ       0.4853     YZ       0.0000     ZZ     -35.7453
    Octopole Moments (Debye-Ang^2)
       XXX      -0.0001    XXY      -1.2945    XYY      -0.0001
       YYY      -0.4433    XXZ       0.0007    XYZ       0.1513
       YYZ       0.0007    XZZ       0.0005    YZZ       1.3287
       ZZZ       0.0032
    Hexadecapole Moments (Debye-Ang^3)
      XXXX    -373.2431   XXXY       0.0017   XXYY    -104.9125
      XYYY       0.0042   YYYY    -226.8429   XXXZ       2.7343
      XXYZ      -0.0006   XYYZ       1.8353   YYYZ       0.0012
      XXZZ     -87.1076   XYZZ       0.0014   YYZZ     -59.7487
      XZZZ       0.8998   YZZZ       0.0003   ZZZZ    -137.0013
 -----------------------------------------------------------------
 Calculating analytic gradient of the SCF energy
 Gradient of SCF Energy
            1           2           3           4           5           6
    1   0.0000387   0.0000462   0.0000148  -0.0000021  -0.0000558  -0.0000409
    2  -0.0000223  -0.0000313   0.0000223   0.0000303  -0.0000133  -0.0000139
    3  -0.0000013  -0.0000243   0.0000018  -0.0000014   0.0000211  -0.0000116
            7           8           9          10          11          12
    1  -0.0000090   0.0000046   0.0000202  -0.0000108  -0.0000012   0.0000017
    2  -0.0000042   0.0000066   0.0000081   0.0000041   0.0000011   0.0000052
    3   0.0000054   0.0000003   0.0000068  -0.0000052   0.0000015   0.0000068
           13          14          15          16
    1   0.0000017   0.0000071  -0.0000073  -0.0000078
    2   0.0000030  -0.0000060   0.0000071   0.0000032
    3   0.0000030  -0.0000052   0.0000029  -0.0000007
 Max gradient component =       5.582E-05
 RMS gradient           =       1.730E-05
 Gradient time:  CPU 0.08 s  wall 0.08 s
 Geometry Optimization Parameters
   NAtoms,    NIC,     NZ,  NCons,   NDum,   NFix, NCnnct, MaxDiis
       16      95       0       0       0       0       0       0

 Cartesian Hessian Update
 Hessian updated using BFGS update


** GEOMETRY OPTIMIZATION IN DELOCALIZED INTERNAL COORDINATES **
   Searching for a Minimum

   Optimization Cycle:   2

                       Coordinates (Angstroms)
     ATOM                X               Y               Z
      1  C        -1.7155222787   -0.8350053990    0.3978744566
      2  C        -0.8588952053   -0.1121272691   -0.6542991682
      3  C        -0.4145089324    1.2109364104   -0.5567348108
      4  C         0.4146371471    1.2108884182    0.5567199774
      5  C         0.8588175361   -0.1122442922    0.6542034708
      6  C         1.7154919689   -0.8351253088   -0.3979333286
      7  H        -1.4402729223   -1.8835989650    0.4895146563
      8  H        -2.7592835675   -0.8046701211    0.0838595828
      9  H        -1.6402856903   -0.3692454488    1.3743481602
     10  H        -1.0870938968   -0.5108810446   -1.6472092752
     11  H        -0.5747729884    1.9878776184   -1.2943571440
     12  H         0.5749020567    1.9877466392    1.2944387767
     13  H         1.0867860615   -0.5111655595    1.6470955234
     14  H         1.4399393926   -1.8836089002   -0.4899461425
     15  H         2.7591564459   -0.8052122540   -0.0835643609
     16  H         1.6407565487   -0.3690723029   -1.3742983852
   Point Group: c1    Number of degrees of freedom:    42


   Energy is   -230.065573840

 Hessian updated using BFGS update

 37 Hessian modes will be used to form the next step
  Hessian Eigenvalues:
     0.002601    0.004240    0.016903    0.017209    0.021924    0.022739
     0.023549    0.023904    0.065349    0.068304    0.071759    0.072769
     0.080168    0.147029    0.148654    0.150768    0.158182    0.158996
     0.163147    0.209022    0.220363    0.223916    0.286582    0.287365
     0.341935    0.347421    0.347530    0.349742    0.350471    0.353209
     0.354444    0.354894    0.356051    0.425730    0.448664    0.459822
     0.548864

 Minimum search - taking simple RFO step
 Searching for Lamda that Minimizes Along All modes
 Value Taken    Lamda =  -0.00000025
 Step Taken.  Stepsize is  0.002820

                             Maximum     Tolerance    Cnvgd?
         Gradient           0.000256      0.000300     YES
         Displacement       0.001196      0.001200     YES
         Energy change      0.000000      0.000001     YES

 Final energy is   -230.06557383970787     


 ******************************
 **  OPTIMIZATION CONVERGED  **
 ******************************

                       Coordinates (Angstroms)
     ATOM                X               Y               Z
      1  C        -1.7155222787   -0.8350053990    0.3978744566
      2  C        -0.8588952053   -0.1121272691   -0.6542991682
      3  C        -0.4145089324    1.2109364104   -0.5567348108
      4  C         0.4146371471    1.2108884182    0.5567199774
      5  C         0.8588175361   -0.1122442922    0.6542034708
      6  C         1.7154919689   -0.8351253088   -0.3979333286
      7  H        -1.4402729223   -1.8835989650    0.4895146563
      8  H        -2.7592835675   -0.8046701211    0.0838595828
      9  H        -1.6402856903   -0.3692454488    1.3743481602
     10  H        -1.0870938968   -0.5108810446   -1.6472092752
     11  H        -0.5747729884    1.9878776184   -1.2943571440
     12  H         0.5749020567    1.9877466392    1.2944387767
     13  H         1.0867860615   -0.5111655595    1.6470955234
     14  H         1.4399393926   -1.8836089002   -0.4899461425
     15  H         2.7591564459   -0.8052122540   -0.0835643609
     16  H         1.6407565487   -0.3690723029   -1.3742983852

Z-matrix Print:
$molecule
0 1
C 
H  1 1.094049
C  1 1.399100 2 118.308366
H  3 1.083246 1 125.718037 2 21.680629 0
C  3 1.388260 1 104.213194 2 -149.573808 0
H  5 1.083240 3 129.385669 1 -145.425650 0
C  5 1.399105 3 104.217204 1 25.393244 0
H  7 1.094052 5 118.307387 3 -149.585594 0
C  7 1.537346 5 125.023482 3 63.266371 0
H  9 1.084479 7 112.064190 5 -21.414597 0
H  9 1.087984 7 111.707360 5 -143.665431 0
H  9 1.090396 7 108.856635 5 98.333692 0
C  1 1.537348 2 109.483731 3 151.888068 0
H  13 1.084472 1 112.066603 2 -170.958838 0
H  13 1.087986 1 111.708728 2 66.786308 0
H  13 1.090394 1 108.853416 2 -51.212941 0
$end


 --------------------------------------------------------------

                    Orbital Energies (a.u.)
 --------------------------------------------------------------

 Alpha MOs
 -- Occupied --
-11.0430 -11.0430 -11.0298 -11.0295 -11.0054 -11.0051  -1.0770  -0.9591
 -0.9200  -0.8375  -0.7390  -0.6530  -0.6292  -0.5728  -0.5475  -0.5245
 -0.5183  -0.4899  -0.4714  -0.4552  -0.4359  -0.2753  -0.2384
 -- Virtual --
  0.2535   0.3146   0.6206   0.6479   0.6644   0.6777   0.6979   0.7204
  0.7277   0.7319   0.7611   0.7618   0.7805   0.8234   0.8803   0.9194
  1.1209
 --------------------------------------------------------------

          Ground-State Mulliken Net Atomic Charges

     Atom                 Charge (a.u.)
  ----------------------------------------
      1 C                    -0.172836
      2 C                    -0.024279
      3 C                    -0.077465
      4 C                    -0.077488
      5 C                    -0.024263
      6 C                    -0.172839
      7 H                     0.060647
      8 H                     0.058018
      9 H                     0.066702
     10 H                     0.036523
     11 H                     0.052691
     12 H                     0.052695
     13 H                     0.036523
     14 H                     0.060648
     15 H                     0.058020
     16 H                     0.066704
  ----------------------------------------
  Sum of atomic charges =     0.000000

 -----------------------------------------------------------------
                    Cartesian Multipole Moments
 -----------------------------------------------------------------
    Charge (ESU x 10^10)
                 0.0000
    Dipole Moment (Debye)
         X       0.0000      Y      -0.4413      Z       0.0001
       Tot       0.4413
    Quadrupole Moments (Debye-Ang)
        XX     -36.3669     XY      -0.0001     YY     -36.2234
        XZ       0.4853     YZ       0.0000     ZZ     -35.7453
    Octopole Moments (Debye-Ang^2)
       XXX      -0.0001    XXY      -1.2945    XYY      -0.0001
       YYY      -0.4433    XXZ       0.0007    XYZ       0.1513
       YYZ       0.0007    XZZ       0.0005    YZZ       1.3287
       ZZZ       0.0032
    Hexadecapole Moments (Debye-Ang^3)
      XXXX    -373.2431   XXXY       0.0017   XXYY    -104.9125
      XYYY       0.0042   YYYY    -226.8429   XXXZ       2.7343
      XXYZ      -0.0006   XYYZ       1.8353   YYYZ       0.0012
      XXZZ     -87.1076   XYZZ       0.0014   YYZZ     -59.7487
      XZZZ       0.8998   YZZZ       0.0003   ZZZZ    -137.0013
 -----------------------------------------------------------------
Archival summary:
1\1\osmium\OPT\HF\STO-3G\610\eric\MonApr2611:22:342021MonApr2611:22:342021\0\\#,OPT,HF,STO-3G,\\0,1\C\H,1,1.09405\C,1,1.3991,2,118.308\H,3,1.08325,1,125.718,2,21.6806,0\C,3,1.38826,1,104.213,2,-149.574,0\H,5,1.08324,3,129.386,1,-145.426,0\C,5,1.39911,3,104.217,1,25.3932,0\H,7,1.09405,5,118.307,3,-149.586,0\C,7,1.53735,5,125.023,3,63.2664,0\H,9,1.08448,7,112.064,5,-21.4146,0\H,9,1.08798,7,111.707,5,-143.665,0\H,9,1.0904,7,108.857,5,98.3337,0\C,1,1.53735,2,109.484,3,151.888,0\H,13,1.08447,1,112.067,2,-170.959,0\H,13,1.08799,1,111.709,2,66.7863,0\H,13,1.09039,1,108.853,2,-51.2129,0\\HF=-230.065574\\@

 Total job time:  0.71s(wall), 0.70s(cpu) 
 Mon Apr 26 11:22:34 2021

        *************************************************************
        *                                                           *
        *  Thank you very much for using Q-Chem.  Have a nice day.  *
        *                                                           *
        *************************************************************


